DF-ISE text

Info {
  version   = 1.0
  type      = xyplot
  datasets  = [
    "time"
    "source OuterVoltage" "source InnerVoltage" "source QuasiFermiPotential" "source DisplacementCurrent" "source eCurrent"
    "source hCurrent" "source TotalCurrent" "source Charge" "topGate OuterVoltage" "topGate InnerVoltage"
    "topGate QuasiFermiPotential" "topGate DisplacementCurrent" "topGate eCurrent" "topGate hCurrent" "topGate TotalCurrent"
    "topGate Charge" "drain OuterVoltage" "drain InnerVoltage" "drain QuasiFermiPotential" "drain DisplacementCurrent"
    "drain eCurrent" "drain hCurrent" "drain TotalCurrent" "drain Charge" "bottomGate OuterVoltage"
    "bottomGate InnerVoltage" "bottomGate QuasiFermiPotential" "bottomGate DisplacementCurrent" "bottomGate eCurrent" "bottomGate hCurrent"
    "bottomGate TotalCurrent" "bottomGate Charge" ]
  functions = [
    Time
    OuterVoltage InnerVoltage QuasiFermiPotential DisplacementCurrent eCurrent
    hCurrent TotalCurrent Charge OuterVoltage InnerVoltage
    QuasiFermiPotential DisplacementCurrent eCurrent hCurrent TotalCurrent
    Charge OuterVoltage InnerVoltage QuasiFermiPotential DisplacementCurrent
    eCurrent hCurrent TotalCurrent Charge OuterVoltage
    InnerVoltage QuasiFermiPotential DisplacementCurrent eCurrent hCurrent
    TotalCurrent Charge ]
}

Data {
      1.50000000000000E-02
      0.00000000000000E+00   0.00000000000000E+00   0.00000000000000E+00   0.00000000000000E+00  -2.15129708094370E-13
     -3.49705262442839E-12  -3.71218233252276E-12  -1.30816338628701E-17   6.00000000000000E-03   6.00000000000000E-03
      0.00000000000000E+00   0.00000000000000E+00   0.00000000000000E+00   0.00000000000000E+00   0.00000000000000E+00
     -5.43543983394581E-17   9.00000000000000E-02   9.00000000000000E-02   0.00000000000000E+00   0.00000000000000E+00
      3.70923880098518E-12   2.94353153757728E-15   3.71218233252276E-12   1.03152277699378E-17   2.10000000000000E-01
      2.10000000000000E-01   0.00000000000000E+00   0.00000000000000E+00   0.00000000000000E+00   0.00000000000000E+00
      0.00000000000000E+00   5.71208044323903E-17
      3.00000000000000E-02
      0.00000000000000E+00   0.00000000000000E+00   0.00000000000000E+00   0.00000000000000E+00  -2.17050472327153E-13
     -3.30607320798043E-12  -3.52312368030758E-12  -1.31465800469557E-17   1.20000000000000E-02   1.20000000000000E-02
      0.00000000000000E+00   0.00000000000000E+00   0.00000000000000E+00   0.00000000000000E+00   0.00000000000000E+00
     -5.26489302247963E-17   9.00000000000000E-02   9.00000000000000E-02   0.00000000000000E+00   0.00000000000000E+00
      3.52021455245046E-12   2.90912785711736E-15   3.52312368030758E-12   1.02479196107427E-17   2.10000000000000E-01
      2.10000000000000E-01   0.00000000000000E+00   0.00000000000000E+00   0.00000000000000E+00   0.00000000000000E+00
      0.00000000000000E+00   5.55475906610093E-17
      4.50000000000000E-02
      0.00000000000000E+00   0.00000000000000E+00   0.00000000000000E+00   0.00000000000000E+00  -2.18975164888883E-13
     -3.13159023839937E-12  -3.35056540328825E-12  -1.32114997101567E-17   1.80000000000000E-02   1.80000000000000E-02
      0.00000000000000E+00   0.00000000000000E+00   0.00000000000000E+00   0.00000000000000E+00   0.00000000000000E+00
     -5.09434241387061E-17   9.00000000000000E-02   9.00000000000000E-02   0.00000000000000E+00   0.00000000000000E+00
      3.34769062530366E-12   2.87477798457691E-15   3.35056540328824E-12   1.01805089606440E-17   2.10000000000000E-01
      2.10000000000000E-01   0.00000000000000E+00   0.00000000000000E+00   0.00000000000000E+00   0.00000000000000E+00
      0.00000000000000E+00   5.39744148882189E-17
      6.00000000000000E-02
      0.00000000000000E+00   0.00000000000000E+00   0.00000000000000E+00   0.00000000000000E+00  -2.20903727516127E-13
     -2.97182443329236E-12  -3.19272816080849E-12  -1.32763935832464E-17   2.40000000000000E-02   2.40000000000000E-02
      0.00000000000000E+00   0.00000000000000E+00   0.00000000000000E+00   0.00000000000000E+00   0.00000000000000E+00
     -4.92378779675026E-17   9.00000000000000E-02   9.00000000000000E-02   0.00000000000000E+00   0.00000000000000E+00
      3.18988766953345E-12   2.84049127503452E-15   3.19272816080849E-12   1.01129923222277E-17   2.10000000000000E-01
      2.10000000000000E-01   0.00000000000000E+00   0.00000000000000E+00   0.00000000000000E+00   0.00000000000000E+00
      0.00000000000000E+00   5.24012792285213E-17
      7.50000000000000E-02
      0.00000000000000E+00   0.00000000000000E+00   0.00000000000000E+00   0.00000000000000E+00  -2.22836102173321E-13
     -2.82525965267254E-12  -3.04809575484586E-12  -1.33412623738582E-17   3.00000000000000E-02   3.00000000000000E-02
      0.00000000000000E+00   0.00000000000000E+00   0.00000000000000E+00   0.00000000000000E+00   0.00000000000000E+00
     -4.75322895419135E-17   9.00000000000000E-02   9.00000000000000E-02   0.00000000000000E+00   0.00000000000000E+00
      3.04528947724897E-12   2.80627759688795E-15   3.04809575484585E-12   1.00453660638681E-17   2.10000000000000E-01
      2.10000000000000E-01   0.00000000000000E+00   0.00000000000000E+00   0.00000000000000E+00   0.00000000000000E+00
      0.00000000000000E+00   5.08281858519036E-17
      9.00000000000000E-02
      0.00000000000000E+00   0.00000000000000E+00   0.00000000000000E+00   0.00000000000000E+00  -2.24772231120123E-13
     -2.69060839139564E-12  -2.91538062251576E-12  -1.34061067672833E-17   3.60000000000000E-02   3.60000000000000E-02
      0.00000000000000E+00   0.00000000000000E+00   0.00000000000000E+00   0.00000000000000E+00   0.00000000000000E+00
     -4.58266566337144E-17   9.00000000000000E-02   9.00000000000000E-02   0.00000000000000E+00   0.00000000000000E+00
      2.91260847533801E-12   2.77214717775376E-15   2.91538062251576E-12   9.97762641383580E-18   2.10000000000000E-01
      2.10000000000000E-01   0.00000000000000E+00   0.00000000000000E+00   0.00000000000000E+00   0.00000000000000E+00
      0.00000000000000E+00   4.92551369871619E-17
      1.05000000000000E-01
      0.00000000000000E+00   0.00000000000000E+00   0.00000000000000E+00   0.00000000000000E+00  -2.26712056992375E-13
     -2.56678167517546E-12  -2.79349373216784E-12  -1.34709274272378E-17   4.20000000000000E-02   4.20000000000000E-02
      0.00000000000000E+00   0.00000000000000E+00   0.00000000000000E+00   0.00000000000000E+00   0.00000000000000E+00
     -4.41209769522150E-17   9.00000000000000E-02   9.00000000000000E-02   0.00000000000000E+00   0.00000000000000E+00
      2.79075562172354E-12   2.73811044429736E-15   2.79349373216784E-12   9.90976945408688E-18   2.10000000000000E-01
      2.10000000000000E-01   0.00000000000000E+00   0.00000000000000E+00   0.00000000000000E+00   0.00000000000000E+00
      0.00000000000000E+00   4.76821349253660E-17
      1.20000000000000E-01
      0.00000000000000E+00   0.00000000000000E+00   0.00000000000000E+00   0.00000000000000E+00  -2.28655522924186E-13
     -2.45286303133960E-12  -2.68151855426379E-12  -1.35357249966013E-17   4.80000000000000E-02   4.80000000000000E-02
      0.00000000000000E+00   0.00000000000000E+00   0.00000000000000E+00   0.00000000000000E+00   0.00000000000000E+00
     -4.24152481405850E-17   9.00000000000000E-02   9.00000000000000E-02   0.00000000000000E+00   0.00000000000000E+00
      2.67881437638548E-12   2.70417787831113E-15   2.68151855426379E-12   9.84179111370943E-18   2.10000000000000E-01
      2.10000000000000E-01   0.00000000000000E+00   0.00000000000000E+00   0.00000000000000E+00   0.00000000000000E+00
      0.00000000000000E+00   4.61091820234770E-17
      1.35000000000000E-01
      0.00000000000000E+00   0.00000000000000E+00   0.00000000000000E+00   0.00000000000000E+00  -2.30602572521068E-13
     -2.34808622009503E-12  -2.57868879261610E-12  -1.36005000981267E-17   5.40000000000000E-02   5.40000000000000E-02
      0.00000000000000E+00   0.00000000000000E+00   0.00000000000000E+00   0.00000000000000E+00   0.00000000000000E+00
     -4.07094677720035E-17   9.00000000000000E-02   9.00000000000000E-02   0.00000000000000E+00   0.00000000000000E+00
      2.57601843273898E-12   2.67035987711907E-15   2.57868879261610E-12   9.77368716200015E-18   2.10000000000000E-01
      2.10000000000000E-01   0.00000000000000E+00   0.00000000000000E+00   0.00000000000000E+00   0.00000000000000E+00
      0.00000000000000E+00   4.45362807081300E-17
      1.50000000000000E-01
      0.00000000000000E+00   0.00000000000000E+00   0.00000000000000E+00   0.00000000000000E+00  -2.32553149945624E-13
     -2.25181642913352E-12  -2.48436957907914E-12  -1.36652533351237E-17   6.00000000000000E-02   6.00000000000000E-02
      0.00000000000000E+00   0.00000000000000E+00   0.00000000000000E+00   0.00000000000000E+00   0.00000000000000E+00
     -3.90036333456161E-17   9.00000000000000E-02   9.00000000000000E-02   0.00000000000000E+00   0.00000000000000E+00
      2.48173291245005E-12   2.63666662909624E-15   2.48436957907914E-12   9.70545320114090E-18   2.10000000000000E-01
      2.10000000000000E-01   0.00000000000000E+00   0.00000000000000E+00   0.00000000000000E+00   0.00000000000000E+00
      0.00000000000000E+00   4.29634334795989E-17
      1.65000000000000E-01
      0.00000000000000E+00   0.00000000000000E+00   0.00000000000000E+00   0.00000000000000E+00  -2.34507199977419E-13
     -2.16353465367986E-12  -2.39804185365727E-12  -1.37299852921157E-17   6.60000000000000E-02   6.60000000000000E-02
      0.00000000000000E+00   0.00000000000000E+00   0.00000000000000E+00   0.00000000000000E+00   0.00000000000000E+00
     -3.72977422822819E-17   9.00000000000000E-02   9.00000000000000E-02   0.00000000000000E+00   0.00000000000000E+00
      2.39543874565129E-12   2.60310800598493E-15   2.39804185365728E-12   9.63708465844222E-18   2.10000000000000E-01
      2.10000000000000E-01   0.00000000000000E+00   0.00000000000000E+00   0.00000000000000E+00   0.00000000000000E+00
      0.00000000000000E+00   4.13906429159554E-17
      1.80000000000000E-01
      0.00000000000000E+00   0.00000000000000E+00   0.00000000000000E+00   0.00000000000000E+00  -2.36464668063649E-13
     -2.08282500542398E-12  -2.31928967348763E-12  -1.37946965354715E-17   7.20000000000000E-02   7.20000000000000E-02
      0.00000000000000E+00   0.00000000000000E+00   0.00000000000000E+00   0.00000000000000E+00   0.00000000000000E+00
     -3.55917919200903E-17   9.00000000000000E-02   9.00000000000000E-02   0.00000000000000E+00   0.00000000000000E+00
      2.31671998001696E-12   2.56969347067004E-15   2.31928967348763E-12   9.56857677811721E-18   2.10000000000000E-01
      2.10000000000000E-01   0.00000000000000E+00   0.00000000000000E+00   0.00000000000000E+00   0.00000000000000E+00
      0.00000000000000E+00   3.98179116774446E-17
      1.95000000000000E-01
      0.00000000000000E+00   0.00000000000000E+00   0.00000000000000E+00   0.00000000000000E+00  -2.38425500163636E-13
     -2.00936471695103E-12  -2.24779021711467E-12  -1.38593876140129E-17   7.80000000000000E-02   7.80000000000000E-02
      0.00000000000000E+00   0.00000000000000E+00   0.00000000000000E+00   0.00000000000000E+00   0.00000000000000E+00
     -3.38857795096248E-17   9.00000000000000E-02   9.00000000000000E-02   0.00000000000000E+00   0.00000000000000E+00
      2.24525378511267E-12   2.53643200199175E-15   2.24779021711466E-12   9.49992461254491E-18   2.10000000000000E-01
      2.10000000000000E-01   0.00000000000000E+00   0.00000000000000E+00   0.00000000000000E+00   0.00000000000000E+00
      0.00000000000000E+00   3.82452425110927E-17
      2.10000000000000E-01
      0.00000000000000E+00   0.00000000000000E+00   0.00000000000000E+00   0.00000000000000E+00  -2.40389643052485E-13
     -1.94291663302974E-12  -2.18330627608223E-12  -1.39240590595974E-17   8.40000000000000E-02   8.40000000000000E-02
      0.00000000000000E+00   0.00000000000000E+00   0.00000000000000E+00   0.00000000000000E+00   0.00000000000000E+00
     -3.21797022089514E-17   9.00000000000000E-02   9.00000000000000E-02   0.00000000000000E+00   0.00000000000000E+00
      2.18080294404007E-12   2.50333204215399E-15   2.18330627608223E-12   9.43112301297819E-18   2.10000000000000E-01
      2.10000000000000E-01   0.00000000000000E+00   0.00000000000000E+00   0.00000000000000E+00   0.00000000000000E+00
      0.00000000000000E+00   3.66726382555706E-17
      2.25000000000000E-01
      0.00000000000000E+00   0.00000000000000E+00   0.00000000000000E+00   0.00000000000000E+00  -2.42357044109070E-13
     -1.88332400612898E-12  -2.12568105023805E-12  -1.39887113876790E-17   9.00000000000000E-02   9.00000000000000E-02
      0.00000000000000E+00   0.00000000000000E+00   0.00000000000000E+00   0.00000000000000E+00   0.00000000000000E+00
     -3.04735570783022E-17   9.00000000000000E-02   9.00000000000000E-02   0.00000000000000E+00   0.00000000000000E+00
      2.12321064878146E-12   2.47040145659424E-15   2.12568105023806E-12   9.36216661964557E-18   2.10000000000000E-01
      2.10000000000000E-01   0.00000000000000E+00   0.00000000000000E+00   0.00000000000000E+00   0.00000000000000E+00
      0.00000000000000E+00   3.51001018463356E-17
      2.40000000000000E-01
      0.00000000000000E+00   0.00000000000000E+00   0.00000000000000E+00   0.00000000000000E+00  -2.44327651340731E-13
     -1.83050744055095E-12  -2.07483509189168E-12  -1.40533450978461E-17   9.60000000000000E-02   9.60000000000000E-02
      0.00000000000000E+00   0.00000000000000E+00   0.00000000000000E+00   0.00000000000000E+00   0.00000000000000E+00
     -2.87673410744250E-17   9.00000000000000E-02   9.00000000000000E-02   0.00000000000000E+00   0.00000000000000E+00
      2.07239744437621E-12   2.43764751547219E-15   2.07483509189168E-12   9.29304985119135E-18   2.10000000000000E-01
      2.10000000000000E-01   0.00000000000000E+00   0.00000000000000E+00   0.00000000000000E+00   0.00000000000000E+00
      0.00000000000000E+00   3.35276363210798E-17
      2.55000000000000E-01
      0.00000000000000E+00   0.00000000000000E+00   0.00000000000000E+00   0.00000000000000E+00  -2.46301413535420E-13
     -1.78446385720259E-12  -2.03076527073801E-12  -1.41179606743376E-17   1.02000000000000E-01   1.02000000000000E-01
      0.00000000000000E+00   0.00000000000000E+00   0.00000000000000E+00   0.00000000000000E+00   0.00000000000000E+00
     -2.70610510445653E-17   9.00000000000000E-02   9.00000000000000E-02   0.00000000000000E+00   0.00000000000000E+00
      2.02836019384896E-12   2.40507688905044E-15   2.03076527073802E-12   9.22376689339125E-18   2.10000000000000E-01
      2.10000000000000E-01   0.00000000000000E+00   0.00000000000000E+00   0.00000000000000E+00   0.00000000000000E+00
      0.00000000000000E+00   3.19552448255117E-17
      2.70000000000000E-01
      0.00000000000000E+00   0.00000000000000E+00   0.00000000000000E+00   0.00000000000000E+00  -2.48278280088650E-13
     -1.74526737899988E-12  -1.99354565908853E-12  -1.41825585865373E-17   1.08000000000000E-01   1.08000000000000E-01
      0.00000000000000E+00   0.00000000000000E+00   0.00000000000000E+00   0.00000000000000E+00   0.00000000000000E+00
     -2.53546837200420E-17   9.00000000000000E-02   9.00000000000000E-02   0.00000000000000E+00   0.00000000000000E+00
      1.99117296343275E-12   2.37269565578218E-15   1.99354565908853E-12   9.15431168707413E-18   2.10000000000000E-01
      2.10000000000000E-01   0.00000000000000E+00   0.00000000000000E+00   0.00000000000000E+00   0.00000000000000E+00
      0.00000000000000E+00   3.03829306195052E-17
      2.85000000000000E-01
      0.00000000000000E+00   0.00000000000000E+00   0.00000000000000E+00   0.00000000000000E+00  -2.50258201078172E-13
     -1.71307206485443E-12  -1.96333026593261E-12  -1.42471392894483E-17   1.14000000000000E-01   1.14000000000000E-01
      0.00000000000000E+00   0.00000000000000E+00   0.00000000000000E+00   0.00000000000000E+00   0.00000000000000E+00
     -2.36482357093765E-17   9.00000000000000E-02   9.00000000000000E-02   0.00000000000000E+00   0.00000000000000E+00
      1.96098975660941E-12   2.34050932320122E-15   1.96333026593261E-12   9.08467791517178E-18   2.10000000000000E-01
      2.10000000000000E-01   0.00000000000000E+00   0.00000000000000E+00   0.00000000000000E+00   0.00000000000000E+00
      0.00000000000000E+00   2.88106970836530E-17
      3.00000000000000E-01
      0.00000000000000E+00   0.00000000000000E+00   0.00000000000000E+00   0.00000000000000E+00  -2.52241127194641E-13
     -1.68811644780060E-12  -1.94035757499524E-12  -1.43117032241462E-17   1.20000000000000E-01   1.20000000000000E-01
      0.00000000000000E+00   0.00000000000000E+00   0.00000000000000E+00   0.00000000000000E+00   0.00000000000000E+00
     -2.19417034909254E-17   9.00000000000000E-02   9.00000000000000E-02   0.00000000000000E+00   0.00000000000000E+00
      1.93804905213862E-12   2.30852285662196E-15   1.94035757499524E-12   9.01485898880986E-18   2.10000000000000E-01
      2.10000000000000E-01   0.00000000000000E+00   0.00000000000000E+00   0.00000000000000E+00   0.00000000000000E+00
      0.00000000000000E+00   2.72385477262618E-17
      3.15000000000000E-01
      0.00000000000000E+00   0.00000000000000E+00   0.00000000000000E+00   0.00000000000000E+00  -2.54227009908361E-13
     -1.67072985979159E-12  -1.92495686969995E-12  -1.43762508182126E-17   1.26000000000000E-01   1.26000000000000E-01
      0.00000000000000E+00   0.00000000000000E+00   0.00000000000000E+00   0.00000000000000E+00   0.00000000000000E+00
     -2.02350834049672E-17   9.00000000000000E-02   9.00000000000000E-02   0.00000000000000E+00   0.00000000000000E+00
      1.92268012898524E-12   2.27674071470425E-15   1.92495686969995E-12   8.94484803234241E-18   2.10000000000000E-01
      2.10000000000000E-01   0.00000000000000E+00   0.00000000000000E+00   0.00000000000000E+00   0.00000000000000E+00
      0.00000000000000E+00   2.56664861908375E-17
      3.30000000000000E-01
      0.00000000000000E+00   0.00000000000000E+00   0.00000000000000E+00   0.00000000000000E+00  -2.56215801109837E-13
     -1.66134055171983E-12  -1.91755635282967E-12  -1.44407824861493E-17   1.32000000000000E-01   1.32000000000000E-01
      0.00000000000000E+00   0.00000000000000E+00   0.00000000000000E+00   0.00000000000000E+00   0.00000000000000E+00
     -1.85283716451806E-17   9.00000000000000E-02   9.00000000000000E-02   0.00000000000000E+00   0.00000000000000E+00
      1.91531118594252E-12   2.24516688714783E-15   1.91755635282967E-12   8.87463786722104E-18   2.10000000000000E-01
      2.10000000000000E-01   0.00000000000000E+00   0.00000000000000E+00   0.00000000000000E+00   0.00000000000000E+00
      0.00000000000000E+00   2.40945162641088E-17
      3.45000000000000E-01
      0.00000000000000E+00   0.00000000000000E+00   0.00000000000000E+00   0.00000000000000E+00  -2.58207453450668E-13
     -1.66048564205798E-12  -1.91869309550865E-12  -1.45052986297715E-17   1.38000000000000E-01   1.38000000000000E-01
      0.00000000000000E+00   0.00000000000000E+00   0.00000000000000E+00   0.00000000000000E+00   0.00000000000000E+00
     -1.68215642494505E-17   9.00000000000000E-02   9.00000000000000E-02   0.00000000000000E+00   0.00000000000000E+00
      1.91647929057391E-12   2.21380493474821E-15   1.91869309550865E-12   8.80422099457639E-18   2.10000000000000E-01
      2.10000000000000E-01   0.00000000000000E+00   0.00000000000000E+00   0.00000000000000E+00   0.00000000000000E+00
      0.00000000000000E+00   2.25226418846457E-17
      3.60000000000000E-01
      0.00000000000000E+00   0.00000000000000E+00   0.00000000000000E+00   0.00000000000000E+00  -2.60201920032843E-13
     -1.66882295092660E-12  -1.92902487095944E-12  -1.45697996385834E-17   1.44000000000000E-01   1.44000000000000E-01
      0.00000000000000E+00   0.00000000000000E+00   0.00000000000000E+00   0.00000000000000E+00   0.00000000000000E+00
     -1.51146570899264E-17   9.00000000000000E-02   9.00000000000000E-02   0.00000000000000E+00   0.00000000000000E+00
      1.92684221293235E-12   2.18265802708976E-15   1.92902487095944E-12   8.73358957637468E-18   2.10000000000000E-01
      2.10000000000000E-01   0.00000000000000E+00   0.00000000000000E+00   0.00000000000000E+00   0.00000000000000E+00
      0.00000000000000E+00   2.09508671521351E-17
      3.75000000000000E-01
      0.00000000000000E+00   0.00000000000000E+00   0.00000000000000E+00   0.00000000000000E+00  -2.62199154531719E-13
     -1.68714479820366E-12  -1.94934395273538E-12  -1.46342858901330E-17   1.50000000000000E-01   1.50000000000000E-01
      0.00000000000000E+00   0.00000000000000E+00   0.00000000000000E+00   0.00000000000000E+00   0.00000000000000E+00
     -1.34076458622483E-17   9.00000000000000E-02   9.00000000000000E-02   0.00000000000000E+00   0.00000000000000E+00
      1.94719222375816E-12   2.15172897722050E-15   1.94934395273538E-12   8.66273541499578E-18   2.10000000000000E-01
      2.10000000000000E-01   0.00000000000000E+00   0.00000000000000E+00   0.00000000000000E+00   0.00000000000000E+00
      0.00000000000000E+00   1.93791963373855E-17
      3.90000000000000E-01
      0.00000000000000E+00   0.00000000000000E+00   0.00000000000000E+00   0.00000000000000E+00  -2.64199111180945E-13
     -1.71639386433319E-12  -1.98059297551414E-12  -1.46987577503482E-17   1.56000000000000E-01   1.56000000000000E-01
      0.00000000000000E+00   0.00000000000000E+00   0.00000000000000E+00   0.00000000000000E+00   0.00000000000000E+00
     -1.17005260738482E-17   9.00000000000000E-02   9.00000000000000E-02   0.00000000000000E+00   0.00000000000000E+00
      1.97847195524282E-12   2.12102027131508E-15   1.98059297551414E-12   8.59164993105968E-18   2.10000000000000E-01
      2.10000000000000E-01   0.00000000000000E+00   0.00000000000000E+00   0.00000000000000E+00   0.00000000000000E+00
      0.00000000000000E+00   1.78076338931367E-17
      4.05000000000000E-01
      0.00000000000000E+00   0.00000000000000E+00   0.00000000000000E+00   0.00000000000000E+00  -2.66201744684223E-13
     -1.75768123066278E-12  -2.02388297534700E-12  -1.47632155738532E-17   1.62000000000000E-01   1.62000000000000E-01
      0.00000000000000E+00   0.00000000000000E+00   0.00000000000000E+00   0.00000000000000E+00   0.00000000000000E+00
     -9.99329303121925E-18   9.00000000000000E-02   9.00000000000000E-02   0.00000000000000E+00   0.00000000000000E+00
      2.02179244125593E-12   2.09053409107102E-15   2.02388297534700E-12   8.52032413930759E-18   2.10000000000000E-01
      2.10000000000000E-01   0.00000000000000E+00   0.00000000000000E+00   0.00000000000000E+00   0.00000000000000E+00
      0.00000000000000E+00   1.62361844657649E-17
      4.20000000000000E-01
      0.00000000000000E+00   0.00000000000000E+00   0.00000000000000E+00   0.00000000000000E+00  -2.68207010104917E-13
     -1.81230673237033E-12  -2.08051374247524E-12  -1.48276597042651E-17   1.68000000000000E-01   1.68000000000000E-01
      0.00000000000000E+00   0.00000000000000E+00   0.00000000000000E+00   0.00000000000000E+00   0.00000000000000E+00
     -8.28594182603517E-18   9.00000000000000E-02   9.00000000000000E-02   0.00000000000000E+00   0.00000000000000E+00
      2.07845347014723E-12   2.06027232800923E-15   2.08051374247524E-12   8.44874862231957E-18   2.10000000000000E-01
      2.10000000000000E-01   0.00000000000000E+00   0.00000000000000E+00   0.00000000000000E+00   0.00000000000000E+00
      0.00000000000000E+00   1.46648529079807E-17
      4.35000000000000E-01
      0.00000000000000E+00   0.00000000000000E+00   0.00000000000000E+00   0.00000000000000E+00  -2.70214862676247E-13
     -1.88178177129343E-12  -2.15199663396968E-12  -1.48920904744700E-17   1.74000000000000E-01   1.74000000000000E-01
      0.00000000000000E+00   0.00000000000000E+00   0.00000000000000E+00   0.00000000000000E+00   0.00000000000000E+00
     -6.57846731998459E-18   9.00000000000000E-02   9.00000000000000E-02   0.00000000000000E+00   0.00000000000000E+00
      2.14996639737949E-12   2.03023659018484E-15   2.15199663396968E-12   8.37691350182338E-18   2.10000000000000E-01
      2.10000000000000E-01   0.00000000000000E+00   0.00000000000000E+00   0.00000000000000E+00   0.00000000000000E+00
      0.00000000000000E+00   1.30936442926312E-17
      4.50000000000000E-01
      0.00000000000000E+00   0.00000000000000E+00   0.00000000000000E+00   0.00000000000000E+00  -2.72225258488609E-13
     -1.96785474824210E-12  -2.24008000673071E-12  -1.49565082068792E-17   1.80000000000000E-01   1.80000000000000E-01
      0.00000000000000E+00   0.00000000000000E+00   0.00000000000000E+00   0.00000000000000E+00   0.00000000000000E+00
     -4.87086412817006E-18   9.00000000000000E-02   9.00000000000000E-02   0.00000000000000E+00   0.00000000000000E+00
      2.23807957853261E-12   2.00042819809602E-15   2.24008000673071E-12   8.30480840731893E-18   2.10000000000000E-01
      2.10000000000000E-01   0.00000000000000E+00   0.00000000000000E+00   0.00000000000000E+00   0.00000000000000E+00
      0.00000000000000E+00   1.15225639277303E-17
      4.65000000000000E-01
      0.00000000000000E+00   0.00000000000000E+00   0.00000000000000E+00   0.00000000000000E+00  -2.74238153244025E-13
     -2.07253928469847E-12  -2.34677743794249E-12  -1.50209132136630E-17   1.86000000000000E-01   1.86000000000000E-01
      0.00000000000000E+00   0.00000000000000E+00   0.00000000000000E+00   0.00000000000000E+00   0.00000000000000E+00
     -3.16312660090145E-18   9.00000000000000E-02   9.00000000000000E-02   0.00000000000000E+00   0.00000000000000E+00
      2.34480658977300E-12   1.97084816949086E-15   2.34677743794249E-12   8.23242244170811E-18   2.10000000000000E-01
      2.10000000000000E-01   0.00000000000000E+00   0.00000000000000E+00   0.00000000000000E+00   0.00000000000000E+00
      0.00000000000000E+00   9.95161737285630E-18
      4.80000000000000E-01
      0.00000000000000E+00   0.00000000000000E+00   0.00000000000000E+00   0.00000000000000E+00  -2.76253503386041E-13
     -2.19814541222574E-12  -2.47439891561178E-12  -1.50853057969634E-17   1.92000000000000E-01   1.92000000000000E-01
      0.00000000000000E+00   0.00000000000000E+00   0.00000000000000E+00   0.00000000000000E+00   0.00000000000000E+00
     -1.45524880369204E-18   9.00000000000000E-02   9.00000000000000E-02   0.00000000000000E+00   0.00000000000000E+00
      2.47245741841754E-12   1.94149719423977E-15   2.47439891561178E-12   8.15974414358073E-18   2.10000000000000E-01
      2.10000000000000E-01   0.00000000000000E+00   0.00000000000000E+00   0.00000000000000E+00   0.00000000000000E+00
      0.00000000000000E+00   8.38081045707472E-18
      4.95000000000000E-01
      0.00000000000000E+00   0.00000000000000E+00   0.00000000000000E+00   0.00000000000000E+00  -2.78271264849011E-13
     -2.34731391448904E-12  -2.62558517933805E-12  -1.51496862490831E-17   1.98000000000000E-01   1.98000000000000E-01
      0.00000000000000E+00   0.00000000000000E+00   0.00000000000000E+00   0.00000000000000E+00   0.00000000000000E+00
      2.52775504758728E-19   9.00000000000000E-02   9.00000000000000E-02   0.00000000000000E+00   0.00000000000000E+00
      2.62367280374305E-12   1.91237559499992E-15   2.62558517933805E-12   8.08676144576357E-18   2.10000000000000E-01
      2.10000000000000E-01   0.00000000000000E+00   0.00000000000000E+00   0.00000000000000E+00   0.00000000000000E+00
      0.00000000000000E+00   6.81014929856082E-18
      5.10000000000000E-01
      0.00000000000000E+00   0.00000000000000E+00   0.00000000000000E+00   0.00000000000000E+00  -2.80291394072605E-13
     -2.52305401163299E-12  -2.80334540570559E-12  -1.52140548526501E-17   2.04000000000000E-01   2.04000000000000E-01
      0.00000000000000E+00   0.00000000000000E+00   0.00000000000000E+00   0.00000000000000E+00   0.00000000000000E+00
      1.96095289683959E-18   9.00000000000000E-02   9.00000000000000E-02   0.00000000000000E+00   0.00000000000000E+00
      2.80146192242977E-12   1.88348327581822E-15   2.80334540570559E-12   8.01346162968977E-18   2.10000000000000E-01
      2.10000000000000E-01   0.00000000000000E+00   0.00000000000000E+00   0.00000000000000E+00   0.00000000000000E+00
      0.00000000000000E+00   5.23964032612079E-18
      5.25000000000000E-01
      0.00000000000000E+00   0.00000000000000E+00   0.00000000000000E+00   0.00000000000000E+00  -2.82313847510404E-13
     -2.72878457992995E-12  -3.01109842744036E-12  -1.52784118807570E-17   2.10000000000000E-01   2.10000000000000E-01
      0.00000000000000E+00   0.00000000000000E+00   0.00000000000000E+00   0.00000000000000E+00   0.00000000000000E+00
      3.66929030283347E-18   9.00000000000000E-02   9.00000000000000E-02   0.00000000000000E+00   0.00000000000000E+00
      3.00924360778631E-12   1.85481965404735E-15   3.01109842744036E-12   7.93983127509031E-18   2.10000000000000E-01
      2.10000000000000E-01   0.00000000000000E+00   0.00000000000000E+00   0.00000000000000E+00   0.00000000000000E+00
      0.00000000000000E+00   3.66929030283326E-18
      5.40000000000000E-01
      0.00000000000000E+00   0.00000000000000E+00   0.00000000000000E+00   0.00000000000000E+00  -2.84338580766082E-13
     -2.96837910122827E-12  -3.25271768199435E-12  -1.53427575970723E-17   2.16000000000000E-01   2.16000000000000E-01
      0.00000000000000E+00   0.00000000000000E+00   0.00000000000000E+00   0.00000000000000E+00   0.00000000000000E+00
      5.37779504056536E-18   9.00000000000000E-02   9.00000000000000E-02   0.00000000000000E+00   0.00000000000000E+00
      3.25089129841920E-12   1.82638357514595E-15   3.25271768199435E-12   7.86585620444545E-18   2.10000000000000E-01
      2.10000000000000E-01   0.00000000000000E+00   0.00000000000000E+00   0.00000000000000E+00   0.00000000000000E+00
      0.00000000000000E+00   2.09910635206154E-18
      5.55000000000000E-01
      0.00000000000000E+00   0.00000000000000E+00   0.00000000000000E+00   0.00000000000000E+00  -2.86365550012764E-13