DF-ISE text

Info {
  version   = 1.0
  type      = xyplot
  datasets  = [
    "time"
    "source OuterVoltage" "source InnerVoltage" "source QuasiFermiPotential" "source DisplacementCurrent" "source eCurrent"
    "source hCurrent" "source TotalCurrent" "source Charge" "topGate OuterVoltage" "topGate InnerVoltage"
    "topGate QuasiFermiPotential" "topGate DisplacementCurrent" "topGate eCurrent" "topGate hCurrent" "topGate TotalCurrent"
    "topGate Charge" "drain OuterVoltage" "drain InnerVoltage" "drain QuasiFermiPotential" "drain DisplacementCurrent"
    "drain eCurrent" "drain hCurrent" "drain TotalCurrent" "drain Charge" "bottomGate OuterVoltage"
    "bottomGate InnerVoltage" "bottomGate QuasiFermiPotential" "bottomGate DisplacementCurrent" "bottomGate eCurrent" "bottomGate hCurrent"
    "bottomGate TotalCurrent" "bottomGate Charge" ]
  functions = [
    Time
    OuterVoltage InnerVoltage QuasiFermiPotential DisplacementCurrent eCurrent
    hCurrent TotalCurrent Charge OuterVoltage InnerVoltage
    QuasiFermiPotential DisplacementCurrent eCurrent hCurrent TotalCurrent
    Charge OuterVoltage InnerVoltage QuasiFermiPotential DisplacementCurrent
    eCurrent hCurrent TotalCurrent Charge OuterVoltage
    InnerVoltage QuasiFermiPotential DisplacementCurrent eCurrent hCurrent
    TotalCurrent Charge ]
}

Data {
      1.50000000000000E-02
      0.00000000000000E+00   0.00000000000000E+00   0.00000000000000E+00   0.00000000000000E+00  -6.99357934570351E-14
     -4.16624627075045E-10  -4.16694562868502E-10  -6.74618275310779E-18   6.00000000000000E-03   6.00000000000000E-03
      0.00000000000000E+00   0.00000000000000E+00   0.00000000000000E+00   0.00000000000000E+00   0.00000000000000E+00
      2.78335808506425E-17   2.60000000000000E-01   2.60000000000000E-01   0.00000000000000E+00   0.00000000000000E+00
      4.16705720015780E-10  -1.11571472788228E-14   4.16694562868502E-10   1.99320286789723E-17   1.60000000000000E-01
      1.60000000000000E-01   0.00000000000000E+00   0.00000000000000E+00   0.00000000000000E+00   0.00000000000000E+00
      0.00000000000000E+00  -4.10194267765070E-17
      3.00000000000000E-02
      0.00000000000000E+00   0.00000000000000E+00   0.00000000000000E+00   0.00000000000000E+00  -7.11482503418399E-14
     -4.08399027257702E-10  -4.08470175508044E-10  -6.82576357453252E-18   1.20000000000000E-02   1.20000000000000E-02
      0.00000000000000E+00   0.00000000000000E+00   0.00000000000000E+00   0.00000000000000E+00   0.00000000000000E+00
      2.95455092668158E-17   2.60000000000000E-01   2.60000000000000E-01   0.00000000000000E+00   0.00000000000000E+00
      4.08479398644325E-10  -9.22313628119433E-15   4.08470175508044E-10   1.98663952450593E-17   1.60000000000000E-01
      1.60000000000000E-01   0.00000000000000E+00   0.00000000000000E+00   0.00000000000000E+00   0.00000000000000E+00
      0.00000000000000E+00  -4.25861409373426E-17
      4.50000000000000E-02
      0.00000000000000E+00   0.00000000000000E+00   0.00000000000000E+00   0.00000000000000E+00  -7.23716861790311E-14
     -4.00945935399537E-10  -4.01018307085716E-10  -6.90484091392523E-18   1.80000000000000E-02   1.80000000000000E-02
      0.00000000000000E+00   0.00000000000000E+00   0.00000000000000E+00   0.00000000000000E+00   0.00000000000000E+00
      3.12571023621837E-17   2.60000000000000E-01   2.60000000000000E-01   0.00000000000000E+00   0.00000000000000E+00
      4.01025774028716E-10  -7.46694299957742E-15   4.01018307085716E-10   1.98009301331288E-17   1.60000000000000E-01
      1.60000000000000E-01   0.00000000000000E+00   0.00000000000000E+00   0.00000000000000E+00   0.00000000000000E+00
      0.00000000000000E+00  -4.41531915813873E-17
      6.00000000000000E-02
      0.00000000000000E+00   0.00000000000000E+00   0.00000000000000E+00   0.00000000000000E+00  -7.36062275206782E-14
     -3.94228902532023E-10  -3.94302508759543E-10  -6.98343091881713E-18   2.40000000000000E-02   2.40000000000000E-02
      0.00000000000000E+00   0.00000000000000E+00   0.00000000000000E+00   0.00000000000000E+00   0.00000000000000E+00
      3.29683771231657E-17   2.60000000000000E-01   2.60000000000000E-01   0.00000000000000E+00   0.00000000000000E+00
      3.94308382674610E-10  -5.87391506673520E-15   3.94302508759543E-10   1.97356156914640E-17   1.60000000000000E-01
      1.60000000000000E-01   0.00000000000000E+00   0.00000000000000E+00   0.00000000000000E+00   0.00000000000000E+00
      0.00000000000000E+00  -4.57205618958126E-17
      7.50000000000000E-02
      0.00000000000000E+00   0.00000000000000E+00   0.00000000000000E+00   0.00000000000000E+00  -7.48519836786655E-14
     -3.88213899203178E-10  -3.88288751186857E-10  -7.06154929400121E-18   3.00000000000000E-02   3.00000000000000E-02
      0.00000000000000E+00   0.00000000000000E+00   0.00000000000000E+00   0.00000000000000E+00   0.00000000000000E+00
      3.46793493715532E-17   2.60000000000000E-01   2.60000000000000E-01   0.00000000000000E+00   0.00000000000000E+00
      3.88293181594539E-10  -4.43040768211501E-15   3.88288751186857E-10   1.96704361066359E-17   1.60000000000000E-01
      1.60000000000000E-01   0.00000000000000E+00   0.00000000000000E+00   0.00000000000000E+00   0.00000000000000E+00
      0.00000000000000E+00  -4.72882361841879E-17
      9.00000000000000E-02
      0.00000000000000E+00   0.00000000000000E+00   0.00000000000000E+00   0.00000000000000E+00  -7.61090474214531E-14
     -3.82869186271818E-10  -3.82945295319239E-10  -7.13921130509434E-18   3.60000000000000E-02   3.60000000000000E-02
      0.00000000000000E+00   0.00000000000000E+00   0.00000000000000E+00   0.00000000000000E+00   0.00000000000000E+00
      3.63900338676171E-17   2.60000000000000E-01   2.60000000000000E-01   0.00000000000000E+00   0.00000000000000E+00
      3.82948419187705E-10  -3.12386846560339E-15   3.82945295319239E-10   1.96053772090563E-17   1.60000000000000E-01
      1.60000000000000E-01   0.00000000000000E+00   0.00000000000000E+00   0.00000000000000E+00   0.00000000000000E+00
      0.00000000000000E+00  -4.88561997715790E-17
      1.05000000000000E-01
      0.00000000000000E+00   0.00000000000000E+00   0.00000000000000E+00   0.00000000000000E+00  -7.73774955880979E-14
     -3.78165192271176E-10  -3.78242569766764E-10  -7.21643178311214E-18   4.20000000000000E-02   4.20000000000000E-02
      0.00000000000000E+00   0.00000000000000E+00   0.00000000000000E+00   0.00000000000000E+00   0.00000000000000E+00
      3.81004444027559E-17   2.60000000000000E-01   2.60000000000000E-01   0.00000000000000E+00   0.00000000000000E+00
      3.78244512468288E-10  -1.94270152446507E-15   3.78242569766764E-10   1.95404262992621E-17   1.60000000000000E-01
      1.60000000000000E-01   0.00000000000000E+00   0.00000000000000E+00   0.00000000000000E+00   0.00000000000000E+00
      0.00000000000000E+00  -5.04244389189058E-17
      1.20000000000000E-01
      0.00000000000000E+00   0.00000000000000E+00   0.00000000000000E+00   0.00000000000000E+00  -7.86573896281674E-14
     -3.74074397027468E-10  -3.74153054417096E-10  -7.29322512991093E-18   4.80000000000000E-02   4.80000000000000E-02
      0.00000000000000E+00   0.00000000000000E+00   0.00000000000000E+00   0.00000000000000E+00   0.00000000000000E+00
      3.98105938828044E-17   2.60000000000000E-01   2.60000000000000E-01   0.00000000000000E+00   0.00000000000000E+00
      3.74153930556682E-10  -8.76139585265895E-16   3.74153054417097E-10   1.94755719927114E-17   1.60000000000000E-01
      1.60000000000000E-01   0.00000000000000E+00   0.00000000000000E+00   0.00000000000000E+00   0.00000000000000E+00
      0.00000000000000E+00  -5.19929407456049E-17
      1.35000000000000E-01
      0.00000000000000E+00   0.00000000000000E+00   0.00000000000000E+00   0.00000000000000E+00  -7.99487760779772E-14
     -3.70571221258406E-10  -3.70651170034484E-10  -7.36960532436665E-18   5.40000000000000E-02   5.40000000000000E-02
      0.00000000000000E+00   0.00000000000000E+00   0.00000000000000E+00   0.00000000000000E+00   0.00000000000000E+00
      4.15204944029982E-17   2.60000000000000E-01   2.60000000000000E-01   0.00000000000000E+00   0.00000000000000E+00
      3.70651084342521E-10   8.56919631834008E-17   3.70651170034485E-10   1.94108040811082E-17   1.60000000000000E-01
      1.60000000000000E-01   0.00000000000000E+00   0.00000000000000E+00   0.00000000000000E+00   0.00000000000000E+00
      0.00000000000000E+00  -5.35616931597397E-17
      1.50000000000000E-01
      0.00000000000000E+00   0.00000000000000E+00   0.00000000000000E+00   0.00000000000000E+00  -8.12516869855265E-14
     -3.67631922482180E-10  -3.67713174169165E-10  -7.44558592917610E-18   6.00000000000000E-02   6.00000000000000E-02
      0.00000000000000E+00   0.00000000000000E+00   0.00000000000000E+00   0.00000000000000E+00   0.00000000000000E+00
      4.32301573154852E-17   2.60000000000000E-01   2.60000000000000E-01   0.00000000000000E+00   0.00000000000000E+00
      3.67712222225261E-10   9.51943904283810E-16   3.67713174169165E-10   1.93461134084852E-17   1.60000000000000E-01
      1.60000000000000E-01   0.00000000000000E+00   0.00000000000000E+00   0.00000000000000E+00   0.00000000000000E+00
      0.00000000000000E+00  -5.51306847947943E-17
      1.65000000000000E-01
      0.00000000000000E+00   0.00000000000000E+00   0.00000000000000E+00   0.00000000000000E+00  -8.25661402982776E-14
     -3.65234496697279E-10  -3.65317062837577E-10  -7.52118009817751E-18   6.60000000000000E-02   6.60000000000000E-02
      0.00000000000000E+00   0.00000000000000E+00   0.00000000000000E+00   0.00000000000000E+00   0.00000000000000E+00
      4.49395932901762E-17   2.60000000000000E-01   2.60000000000000E-01   0.00000000000000E+00   0.00000000000000E+00
      3.65315331837307E-10   1.73100027041878E-15   3.65317062837577E-10   1.92814917604627E-17   1.60000000000000E-01
      1.60000000000000E-01   0.00000000000000E+00   0.00000000000000E+00   0.00000000000000E+00   0.00000000000000E+00
      0.00000000000000E+00  -5.66999049524614E-17
      1.80000000000000E-01
      0.00000000000000E+00   0.00000000000000E+00   0.00000000000000E+00   0.00000000000000E+00  -8.38921402295032E-14
     -3.63358586124410E-10  -3.63442478264639E-10  -7.59640058410061E-18   7.20000000000000E-02   7.20000000000000E-02
      0.00000000000000E+00   0.00000000000000E+00   0.00000000000000E+00   0.00000000000000E+00   0.00000000000000E+00
      4.66488123696427E-17   2.60000000000000E-01   2.60000000000000E-01   0.00000000000000E+00   0.00000000000000E+00
      3.63440047656447E-10   2.43060819281513E-15   3.63442478264640E-10   1.92169317652715E-17   1.60000000000000E-01
      1.60000000000000E-01   0.00000000000000E+00   0.00000000000000E+00   0.00000000000000E+00   0.00000000000000E+00
      0.00000000000000E+00  -5.82693435508136E-17
      1.95000000000000E-01
      0.00000000000000E+00   0.00000000000000E+00   0.00000000000000E+00   0.00000000000000E+00  -8.52296776199719E-14
     -3.61985392612335E-10  -3.62070622289955E-10  -7.67125974666518E-18   7.80000000000000E-02   7.80000000000000E-02
      0.00000000000000E+00   0.00000000000000E+00   0.00000000000000E+00   0.00000000000000E+00   0.00000000000000E+00
      4.83578240186913E-17   2.60000000000000E-01   2.60000000000000E-01   0.00000000000000E+00   0.00000000000000E+00
      3.62067564418429E-10   3.05787152723473E-15   3.62070622289956E-10   1.91524268052799E-17   1.60000000000000E-01
      1.60000000000000E-01   0.00000000000000E+00   0.00000000000000E+00   0.00000000000000E+00   0.00000000000000E+00
      0.00000000000000E+00  -5.98389910773060E-17
      2.10000000000000E-01
      0.00000000000000E+00   0.00000000000000E+00   0.00000000000000E+00   0.00000000000000E+00  -8.65787303122848E-14
     -3.61097596849994E-10  -3.61184175580306E-10  -7.74576956095781E-18   8.40000000000000E-02   8.40000000000000E-02
      0.00000000000000E+00   0.00000000000000E+00   0.00000000000000E+00   0.00000000000000E+00   0.00000000000000E+00
      5.00666371691770E-17   2.60000000000000E-01   2.60000000000000E-01   0.00000000000000E+00   0.00000000000000E+00
      3.61180556247042E-10   3.61933326494896E-15   3.61184175580307E-10   1.90879709378995E-17   1.60000000000000E-01
      1.60000000000000E-01   0.00000000000000E+00   0.00000000000000E+00   0.00000000000000E+00   0.00000000000000E+00
      0.00000000000000E+00  -6.14088385461187E-17
      2.25000000000000E-01
      0.00000000000000E+00   0.00000000000000E+00   0.00000000000000E+00   0.00000000000000E+00  -8.79392635549596E-14
     -3.60679283145598E-10  -3.60767222409153E-10  -7.81994162602391E-18   9.00000000000000E-02   9.00000000000000E-02
      0.00000000000000E+00   0.00000000000000E+00   0.00000000000000E+00   0.00000000000000E+00   0.00000000000000E+00
      5.17752602605571E-17   2.60000000000000E-01   2.60000000000000E-01   0.00000000000000E+00   0.00000000000000E+00
      3.60763101427799E-10   4.12098135508069E-15   3.60767222409154E-10   1.90235588248656E-17   1.60000000000000E-01
      1.60000000000000E-01   0.00000000000000E+00   0.00000000000000E+00   0.00000000000000E+00   0.00000000000000E+00
      0.00000000000000E+00  -6.29788774593987E-17
      2.40000000000000E-01
      0.00000000000000E+00   0.00000000000000E+00   0.00000000000000E+00   0.00000000000000E+00  -8.93112304524470E-14
     -3.60715869845044E-10  -3.60805181075496E-10  -7.89378717362014E-18   9.60000000000000E-02   9.60000000000000E-02
      0.00000000000000E+00   0.00000000000000E+00   0.00000000000000E+00   0.00000000000000E+00   0.00000000000000E+00
      5.34837012766308E-17   2.60000000000000E-01   2.60000000000000E-01   0.00000000000000E+00   0.00000000000000E+00
      3.60800612762330E-10   4.56831316631638E-15   3.60805181075497E-10   1.89591856689967E-17   1.60000000000000E-01
      1.60000000000000E-01   0.00000000000000E+00   0.00000000000000E+00   0.00000000000000E+00   0.00000000000000E+00
      0.00000000000000E+00  -6.45490997720074E-17
      2.55000000000000E-01
      0.00000000000000E+00   0.00000000000000E+00   0.00000000000000E+00   0.00000000000000E+00  -9.06945724755550E-14
     -3.61194045246413E-10  -3.61284739818888E-10  -7.96731707707841E-18   1.02000000000000E-01   1.02000000000000E-01
      0.00000000000000E+00   0.00000000000000E+00   0.00000000000000E+00   0.00000000000000E+00   0.00000000000000E+00
      5.51919677788649E-17   2.60000000000000E-01   2.60000000000000E-01   0.00000000000000E+00   0.00000000000000E+00
      3.61279773453562E-10   4.96636532701800E-15   3.61284739818889E-10   1.88948471576332E-17   1.60000000000000E-01
      1.60000000000000E-01   0.00000000000000E+00   0.00000000000000E+00   0.00000000000000E+00   0.00000000000000E+00
      0.00000000000000E+00  -6.61194978594197E-17
      2.70000000000000E-01
      0.00000000000000E+00   0.00000000000000E+00   0.00000000000000E+00   0.00000000000000E+00  -9.20892200443766E-14
     -3.62101709015111E-10  -3.62193798235156E-10  -8.04054186023923E-18   1.08000000000000E-01   1.08000000000000E-01
      0.00000000000000E+00   0.00000000000000E+00   0.00000000000000E+00   0.00000000000000E+00   0.00000000000000E+00
      5.69000669366577E-17   2.60000000000000E-01   2.60000000000000E-01   0.00000000000000E+00   0.00000000000000E+00
      3.62188478486735E-10   5.31974842045150E-15   3.62193798235156E-10   1.88305394120411E-17   1.60000000000000E-01
      1.60000000000000E-01   0.00000000000000E+00   0.00000000000000E+00   0.00000000000000E+00   0.00000000000000E+00
      0.00000000000000E+00  -6.76900644884596E-17
      2.85000000000000E-01
      0.00000000000000E+00   0.00000000000000E+00   0.00000000000000E+00   0.00000000000000E+00  -9.34950931927820E-14
     -3.63427919066250E-10  -3.63521414159443E-10  -8.11347170641670E-18   1.14000000000000E-01   1.14000000000000E-01
      0.00000000000000E+00   0.00000000000000E+00   0.00000000000000E+00   0.00000000000000E+00   0.00000000000000E+00
      5.86080055548610E-17   2.60000000000000E-01   2.60000000000000E-01   0.00000000000000E+00   0.00000000000000E+00
      3.63515781487978E-10   5.63267146540373E-15   3.63521414159443E-10   1.87662589421454E-17   1.60000000000000E-01
      1.60000000000000E-01   0.00000000000000E+00   0.00000000000000E+00   0.00000000000000E+00   0.00000000000000E+00
      0.00000000000000E+00  -6.92607927905897E-17
      3.00000000000000E-01
      0.00000000000000E+00   0.00000000000000E+00   0.00000000000000E+00   0.00000000000000E+00  -9.49121023200286E-14
     -3.65162843945615E-10  -3.65257756047935E-10  -8.18611646736288E-18   1.20000000000000E-01   1.20000000000000E-01
      0.00000000000000E+00   0.00000000000000E+00   0.00000000000000E+00   0.00000000000000E+00   0.00000000000000E+00
      6.03157900988400E-17   2.60000000000000E-01   2.60000000000000E-01   0.00000000000000E+00   0.00000000000000E+00
      3.65251847060441E-10   5.90898749391433E-15   3.65257756047935E-10   1.87020026060230E-17   1.60000000000000E-01
      1.60000000000000E-01   0.00000000000000E+00   0.00000000000000E+00   0.00000000000000E+00   0.00000000000000E+00
      0.00000000000000E+00  -7.08316762375001E-17
      3.15000000000000E-01
      0.00000000000000E+00   0.00000000000000E+00   0.00000000000000E+00   0.00000000000000E+00  -9.63401490311915E-14
     -3.67297720675406E-10  -3.67394060824438E-10  -8.25848567220273E-18   1.26000000000000E-01   1.26000000000000E-01
      0.00000000000000E+00   0.00000000000000E+00   0.00000000000000E+00   0.00000000000000E+00   0.00000000000000E+00
      6.20234267173238E-17   2.60000000000000E-01   2.60000000000000E-01   0.00000000000000E+00   0.00000000000000E+00
      3.67387908617717E-10   6.15220672104410E-15   3.67394060824438E-10   1.86377675736495E-17   1.60000000000000E-01
      1.60000000000000E-01   0.00000000000000E+00   0.00000000000000E+00   0.00000000000000E+00   0.00000000000000E+00
      0.00000000000000E+00  -7.24027086187706E-17
      3.30000000000000E-01
      0.00000000000000E+00   0.00000000000000E+00   0.00000000000000E+00   0.00000000000000E+00  -9.77791270640935E-14
     -3.69824818157704E-10  -3.69922597284768E-10  -8.33058853631520E-18   1.32000000000000E-01   1.32000000000000E-01
      0.00000000000000E+00   0.00000000000000E+00   0.00000000000000E+00   0.00000000000000E+00   0.00000000000000E+00
      6.37309212632721E-17   2.60000000000000E-01   2.60000000000000E-01   0.00000000000000E+00   0.00000000000000E+00
      3.69916231755248E-10   6.36552952026167E-15   3.69922597284768E-10   1.85735512944468E-17   1.60000000000000E-01
      1.60000000000000E-01   0.00000000000000E+00   0.00000000000000E+00   0.00000000000000E+00   0.00000000000000E+00
      0.00000000000000E+00  -7.39738840214037E-17
      3.45000000000000E-01
      0.00000000000000E+00   0.00000000000000E+00   0.00000000000000E+00   0.00000000000000E+00  -9.92289232964373E-14
     -3.72737406171646E-10  -3.72836635094942E-10  -8.40243397013869E-18   1.38000000000000E-01   1.38000000000000E-01
      0.00000000000000E+00   0.00000000000000E+00   0.00000000000000E+00   0.00000000000000E+00   0.00000000000000E+00
      6.54382793129572E-17   2.60000000000000E-01   2.60000000000000E-01   0.00000000000000E+00   0.00000000000000E+00
      3.72830083222635E-10   6.55187230715759E-15   3.72836635094942E-10   1.85093514682258E-17   1.60000000000000E-01
      1.60000000000000E-01   0.00000000000000E+00   0.00000000000000E+00   0.00000000000000E+00   0.00000000000000E+00
      0.00000000000000E+00  -7.55451968110442E-17
      3.60000000000000E-01
      0.00000000000000E+00   0.00000000000000E+00   0.00000000000000E+00   0.00000000000000E+00  -1.00689418823022E-13
     -3.76029730055209E-10  -3.76130419474032E-10  -8.47403058788265E-18   1.44000000000000E-01   1.44000000000000E-01
      0.00000000000000E+00   0.00000000000000E+00   0.00000000000000E+00   0.00000000000000E+00   0.00000000000000E+00
      6.71455061834413E-17   2.60000000000000E-01   2.60000000000000E-01   0.00000000000000E+00   0.00000000000000E+00
      3.76123705582893E-10   6.71389113942410E-15   3.76130419474033E-10   1.84451660191666E-17   1.60000000000000E-01
      1.60000000000000E-01   0.00000000000000E+00   0.00000000000000E+00   0.00000000000000E+00   0.00000000000000E+00
      0.00000000000000E+00  -7.71166416147252E-17
      3.75000000000000E-01
      0.00000000000000E+00   0.00000000000000E+00   0.00000000000000E+00   0.00000000000000E+00  -1.02160490089517E-13
     -3.79696991180187E-10  -3.79799151670277E-10  -8.54538671612919E-18   1.50000000000000E-01   1.50000000000000E-01
      0.00000000000000E+00   0.00000000000000E+00   0.00000000000000E+00   0.00000000000000E+00   0.00000000000000E+00
      6.88526069486084E-17   2.60000000000000E-01   2.60000000000000E-01   0.00000000000000E+00   0.00000000000000E+00
      3.79792297669095E-10   6.85400118220415E-15   3.79799151670277E-10   1.83809930725113E-17   1.60000000000000E-01
      1.60000000000000E-01   0.00000000000000E+00   0.00000000000000E+00   0.00000000000000E+00   0.00000000000000E+00
      0.00000000000000E+00  -7.86882133049905E-17
      3.90000000000000E-01
      0.00000000000000E+00   0.00000000000000E+00   0.00000000000000E+00   0.00000000000000E+00  -1.03642010066310E-13
     -3.83735333352392E-10  -3.83838975362458E-10  -8.61651040231137E-18   1.56000000000000E-01   1.56000000000000E-01
      0.00000000000000E+00   0.00000000000000E+00   0.00000000000000E+00   0.00000000000000E+00   0.00000000000000E+00
      7.05595864538944E-17   2.60000000000000E-01   2.60000000000000E-01   0.00000000000000E+00   0.00000000000000E+00
      3.83832000974055E-10   6.97438840331181E-15   3.83838975362458E-10   1.83168309336834E-17   1.60000000000000E-01
      1.60000000000000E-01   0.00000000000000E+00   0.00000000000000E+00   0.00000000000000E+00   0.00000000000000E+00
      0.00000000000000E+00  -8.02599069852664E-17
      4.05000000000000E-01
      0.00000000000000E+00   0.00000000000000E+00   0.00000000000000E+00   0.00000000000000E+00  -1.05133849443633E-13
     -3.88141835331731E-10  -3.88246969181174E-10  -8.68740942305628E-18   1.62000000000000E-01   1.62000000000000E-01
      0.00000000000000E+00   0.00000000000000E+00   0.00000000000000E+00   0.00000000000000E+00   0.00000000000000E+00
      7.22664493298412E-17   2.60000000000000E-01   2.60000000000000E-01   0.00000000000000E+00   0.00000000000000E+00
      3.88239892135358E-10   7.07704581686788E-15   3.88246969181175E-10   1.82526780695763E-17   1.60000000000000E-01
      1.60000000000000E-01   0.00000000000000E+00   0.00000000000000E+00   0.00000000000000E+00   0.00000000000000E+00
      0.00000000000000E+00  -8.18317179763612E-17
      4.20000000000000E-01
      0.00000000000000E+00   0.00000000000000E+00   0.00000000000000E+00   0.00000000000000E+00  -1.06635877827560E-13
     -3.92914509599560E-10  -3.93021145477388E-10  -8.75809129238358E-18   1.68000000000000E-01   1.68000000000000E-01
      0.00000000000000E+00   0.00000000000000E+00   0.00000000000000E+00   0.00000000000000E+00   0.00000000000000E+00
      7.39732000045909E-17   2.60000000000000E-01   2.60000000000000E-01   0.00000000000000E+00   0.00000000000000E+00
      3.93013981705911E-10   7.16377147694158E-15   3.93021145477388E-10   1.81885330917826E-17   1.60000000000000E-01
      1.60000000000000E-01   0.00000000000000E+00   0.00000000000000E+00   0.00000000000000E+00   0.00000000000000E+00
      0.00000000000000E+00  -8.34036418039899E-17
      4.35000000000000E-01
      0.00000000000000E+00   0.00000000000000E+00   0.00000000000000E+00   0.00000000000000E+00  -1.08147964915570E-13
     -3.98052307661157E-10  -3.98160455626072E-10  -8.82856326975119E-18   1.74000000000000E-01   1.74000000000000E-01
      0.00000000000000E+00   0.00000000000000E+00   0.00000000000000E+00   0.00000000000000E+00   0.00000000000000E+00
      7.56798427154210E-17   2.60000000000000E-01   2.60000000000000E-01   0.00000000000000E+00   0.00000000000000E+00
      3.98153219430070E-10   7.23619600239252E-15   3.98160455626072E-10   1.81243947415579E-17   1.60000000000000E-01
      1.60000000000000E-01   0.00000000000000E+00   0.00000000000000E+00   0.00000000000000E+00   0.00000000000000E+00
      0.00000000000000E+00  -8.49756741872277E-17
      4.50000000000000E-01
      0.00000000000000E+00   0.00000000000000E+00   0.00000000000000E+00   0.00000000000000E+00  -1.09669981630237E-13
     -4.03555132095227E-10  -4.03664802076857E-10  -8.89883236794159E-18   1.80000000000000E-01   1.80000000000000E-01
      0.00000000000000E+00   0.00000000000000E+00   0.00000000000000E+00   0.00000000000000E+00   0.00000000000000E+00
      7.73863815194108E-17   2.60000000000000E-01   2.60000000000000E-01   0.00000000000000E+00   0.00000000000000E+00
      4.03657506277363E-10   7.29579949444347E-15   4.03664802076857E-10   1.80602618763376E-17   1.60000000000000E-01
      1.60000000000000E-01   0.00000000000000E+00   0.00000000000000E+00   0.00000000000000E+00   0.00000000000000E+00
      0.00000000000000E+00  -8.65478110278069E-17
      4.65000000000000E-01
      0.00000000000000E+00   0.00000000000000E+00   0.00000000000000E+00   0.00000000000000E+00  -1.11201801190232E-13
     -4.09423855632491E-10  -4.09535057433681E-10  -8.96890536078327E-18   1.86000000000000E-01   1.86000000000000E-01
      0.00000000000000E+00   0.00000000000000E+00   0.00000000000000E+00   0.00000000000000E+00   0.00000000000000E+00
      7.90928203033230E-17   2.60000000000000E-01   2.60000000000000E-01   0.00000000000000E+00   0.00000000000000E+00
      4.09527713521056E-10   7.34391262481379E-15   4.09535057433681E-10   1.79961334576425E-17   1.60000000000000E-01
      1.60000000000000E-01   0.00000000000000E+00   0.00000000000000E+00   0.00000000000000E+00   0.00000000000000E+00
      0.00000000000000E+00  -8.81200484001822E-17
      4.80000000000000E-01
      0.00000000000000E+00   0.00000000000000E+00   0.00000000000000E+00   0.00000000000000E+00  -1.12743300099110E-13
     -4.15660347626875E-10  -4.15773090926975E-10  -9.03878879070326E-18   1.92000000000000E-01   1.92000000000000E-01
      0.00000000000000E+00   0.00000000000000E+00   0.00000000000000E+00   0.00000000000000E+00   0.00000000000000E+00
      8.07991627927705E-17   2.60000000000000E-01   2.60000000000000E-01   0.00000000000000E+00   0.00000000000000E+00
      4.15765709187671E-10   7.38173930388814E-15   4.15773090926975E-10   1.79320085402269E-17   1.60000000000000E-01
      1.60000000000000E-01   0.00000000000000E+00   0.00000000000000E+00   0.00000000000000E+00   0.00000000000000E+00
      0.00000000000000E+00  -8.96923825422942E-17
      4.95000000000000E-01
      0.00000000000000E+00   0.00000000000000E+00   0.00000000000000E+00   0.00000000000000E+00  -1.14294359034259E-13
     -4.22267508256086E-10  -4.22381802615120E-10  -9.10848897610739E-18   1.98000000000000E-01   1.98000000000000E-01
      0.00000000000000E+00   0.00000000000000E+00   0.00000000000000E+00   0.00000000000000E+00   0.00000000000000E+00
      8.25054125607378E-17   2.60000000000000E-01   2.60000000000000E-01   0.00000000000000E+00   0.00000000000000E+00
      4.22374392247649E-10   7.41036747103184E-15   4.22381802615120E-10   1.78678862623394E-17   1.60000000000000E-01
      1.60000000000000E-01   0.00000000000000E+00   0.00000000000000E+00   0.00000000000000E+00   0.00000000000000E+00
      0.00000000000000E+00  -9.12648098469698E-17
      5.10000000000000E-01
      0.00000000000000E+00   0.00000000000000E+00   0.00000000000000E+00   0.00000000000000E+00  -1.15854863620758E-13
     -4.29249310877189E-10  -4.29365165740809E-10  -9.17801201858597E-18   2.04000000000000E-01   2.04000000000000E-01
      0.00000000000000E+00   0.00000000000000E+00   0.00000000000000E+00   0.00000000000000E+00   0.00000000000000E+00
      8.42115730355106E-17   2.60000000000000E-01   2.60000000000000E-01   0.00000000000000E+00   0.00000000000000E+00
      4.29357734967437E-10   7.43077337239630E-15   4.29365165740810E-10   1.78037658369790E-17   1.60000000000000E-01
      1.60000000000000E-01   0.00000000000000E+00   0.00000000000000E+00   0.00000000000000E+00   0.00000000000000E+00
      0.00000000000000E+00  -9.28373268539036E-17
      5.25000000000000E-01
      0.00000000000000E+00   0.00000000000000E+00   0.00000000000000E+00   0.00000000000000E+00  -1.17424705077894E-13
     -4.36610853035159E-10  -4.36728277740237E-10  -9.24736380994337E-18   2.10000000000000E-01   2.10000000000000E-01
      0.00000000000000E+00   0.00000000000000E+00   0.00000000000000E+00   0.00000000000000E+00   0.00000000000000E+00
      8.59176475080712E-17   2.60000000000000E-01   2.60000000000000E-01   0.00000000000000E+00   0.00000000000000E+00
      4.36720833901345E-10   7.44383889220781E-15   4.36728277740237E-10   1.77396465440428E-17   1.60000000000000E-01
      1.60000000000000E-01   0.00000000000000E+00   0.00000000000000E+00   0.00000000000000E+00   0.00000000000000E+00
      0.00000000000000E+00  -9.44099302421707E-17
      5.40000000000000E-01
      0.00000000000000E+00   0.00000000000000E+00   0.00000000000000E+00   0.00000000000000E+00  -1.19003780729033E-13
     -4.44358416642444E-10  -4.44477420423173E-10  -9.31655003905066E-18   2.16000000000000E-01   2.16000000000000E-01
      0.00000000000000E+00   0.00000000000000E+00   0.00000000000000E+00   0.00000000000000E+00   0.00000000000000E+00
      8.76236391390041E-17   2.60000000000000E-01   2.60000000000000E-01   0.00000000000000E+00   0.00000000000000E+00
      4.44469970068785E-10   7.45035438794167E-15   4.44477420423173E-10   1.76755277232715E-17   1.60000000000000E-01
      1.60000000000000E-01   0.00000000000000E+00   0.00000000000000E+00   0.00000000000000E+00   0.00000000000000E+00
      0.00000000000000E+00  -9.59826168232250E-17
      5.55000000000000E-01
      0.00000000000000E+00   0.00000000000000E+00   0.00000000000000E+00   0.00000000000000E+00  -1.20591994369029E-13