DF-ISE text

Info {
  version   = 1.0
  type      = xyplot
  datasets  = [
    "time"
    "source OuterVoltage" "source InnerVoltage" "source QuasiFermiPotential" "source DisplacementCurrent" "source eCurrent"
    "source hCurrent" "source TotalCurrent" "source Charge" "topGate OuterVoltage" "topGate InnerVoltage"
    "topGate QuasiFermiPotential" "topGate DisplacementCurrent" "topGate eCurrent" "topGate hCurrent" "topGate TotalCurrent"
    "topGate Charge" "drain OuterVoltage" "drain InnerVoltage" "drain QuasiFermiPotential" "drain DisplacementCurrent"
    "drain eCurrent" "drain hCurrent" "drain TotalCurrent" "drain Charge" "bottomGate OuterVoltage"
    "bottomGate InnerVoltage" "bottomGate QuasiFermiPotential" "bottomGate DisplacementCurrent" "bottomGate eCurrent" "bottomGate hCurrent"
    "bottomGate TotalCurrent" "bottomGate Charge" ]
  functions = [
    Time
    OuterVoltage InnerVoltage QuasiFermiPotential DisplacementCurrent eCurrent
    hCurrent TotalCurrent Charge OuterVoltage InnerVoltage
    QuasiFermiPotential DisplacementCurrent eCurrent hCurrent TotalCurrent
    Charge OuterVoltage InnerVoltage QuasiFermiPotential DisplacementCurrent
    eCurrent hCurrent TotalCurrent Charge OuterVoltage
    InnerVoltage QuasiFermiPotential DisplacementCurrent eCurrent hCurrent
    TotalCurrent Charge ]
}

Data {
      1.50000000000000E-02
      0.00000000000000E+00   0.00000000000000E+00   0.00000000000000E+00   0.00000000000000E+00   9.89093760365767E-19
     -1.18194005229550E-12  -1.18193906320174E-12  -7.13907622733570E-18   6.00000000000000E-03   6.00000000000000E-03
      0.00000000000000E+00   0.00000000000000E+00   0.00000000000000E+00   0.00000000000000E+00   0.00000000000000E+00
      2.27783637755299E-17   0.00000000000000E+00   0.00000000000000E+00   0.00000000000000E+00   0.00000000000000E+00
      1.18194043300365E-12  -1.36980191262612E-18   1.18193906320174E-12   1.40415695827180E-17   1.90000000000000E-01
      1.90000000000000E-01   0.00000000000000E+00   0.00000000000000E+00   0.00000000000000E+00   0.00000000000000E+00
      0.00000000000000E+00  -2.96808571309122E-17
      3.00000000000000E-02
      0.00000000000000E+00   0.00000000000000E+00   0.00000000000000E+00   0.00000000000000E+00   9.45865988816874E-19
     -1.19616070853407E-12  -1.19615976266808E-12  -7.21629744463128E-18   1.20000000000000E-02   1.20000000000000E-02
      0.00000000000000E+00   0.00000000000000E+00   0.00000000000000E+00   0.00000000000000E+00   0.00000000000000E+00
      2.44891240294773E-17   0.00000000000000E+00   0.00000000000000E+00   0.00000000000000E+00   0.00000000000000E+00
      1.19616106459204E-12  -1.30192395509528E-18   1.19615976266808E-12   1.39759386474445E-17   1.90000000000000E-01
      1.90000000000000E-01   0.00000000000000E+00   0.00000000000000E+00   0.00000000000000E+00   0.00000000000000E+00
      0.00000000000000E+00  -3.12487652322905E-17
      4.50000000000000E-02
      0.00000000000000E+00   0.00000000000000E+00   0.00000000000000E+00   0.00000000000000E+00   9.07977126445486E-19
     -1.21461347603185E-12  -1.21461256805472E-12  -7.29309146691087E-18   1.80000000000000E-02   1.80000000000000E-02
      0.00000000000000E+00   0.00000000000000E+00   0.00000000000000E+00   0.00000000000000E+00   0.00000000000000E+00
      2.61996290874194E-17   0.00000000000000E+00   0.00000000000000E+00   0.00000000000000E+00   0.00000000000000E+00
      1.21461384202515E-12  -1.27397042950635E-18   1.21461256805472E-12   1.39103906283360E-17   1.90000000000000E-01
      1.90000000000000E-01   0.00000000000000E+00   0.00000000000000E+00   0.00000000000000E+00   0.00000000000000E+00
      0.00000000000000E+00  -3.28169282488445E-17
      6.00000000000000E-02
      0.00000000000000E+00   0.00000000000000E+00   0.00000000000000E+00   0.00000000000000E+00   8.75602562550311E-19
     -1.23708363687824E-12  -1.23708276127568E-12  -7.36947227833832E-18   2.40000000000000E-02   2.40000000000000E-02
      0.00000000000000E+00   0.00000000000000E+00   0.00000000000000E+00   0.00000000000000E+00   0.00000000000000E+00
      2.79098915942073E-17   0.00000000000000E+00   0.00000000000000E+00   0.00000000000000E+00   0.00000000000000E+00
      1.23708400318251E-12  -1.24190682757238E-18   1.23708276127568E-12   1.38449144236861E-17   1.90000000000000E-01
      1.90000000000000E-01   0.00000000000000E+00   0.00000000000000E+00   0.00000000000000E+00   0.00000000000000E+00
      0.00000000000000E+00  -3.43853337395552E-17
      7.50000000000000E-02
      0.00000000000000E+00   0.00000000000000E+00   0.00000000000000E+00   0.00000000000000E+00   8.49342992462402E-19
     -1.26340548146419E-12  -1.26340463212120E-12  -7.44545344670917E-18   3.00000000000000E-02   3.00000000000000E-02
      0.00000000000000E+00   0.00000000000000E+00   0.00000000000000E+00   0.00000000000000E+00   0.00000000000000E+00
      2.96199234148009E-17   0.00000000000000E+00   0.00000000000000E+00   0.00000000000000E+00   0.00000000000000E+00
      1.26340585773510E-12  -1.22561389518759E-18   1.26340463212120E-12   1.37795000357677E-17   1.90000000000000E-01
      1.90000000000000E-01   0.00000000000000E+00   0.00000000000000E+00   0.00000000000000E+00   0.00000000000000E+00
      0.00000000000000E+00  -3.59539700038595E-17
      9.00000000000000E-02
      0.00000000000000E+00   0.00000000000000E+00   0.00000000000000E+00   0.00000000000000E+00   8.30295123387132E-19
     -1.29345658047235E-12  -1.29345575017723E-12  -7.52104813072225E-18   3.60000000000000E-02   3.60000000000000E-02
      0.00000000000000E+00   0.00000000000000E+00   0.00000000000000E+00   0.00000000000000E+00   0.00000000000000E+00
      3.13297357011785E-17   0.00000000000000E+00   0.00000000000000E+00   0.00000000000000E+00   0.00000000000000E+00
      1.29345698183269E-12  -1.23165546469266E-18   1.29345575017723E-12   1.37141384503523E-17   1.90000000000000E-01
      1.90000000000000E-01   0.00000000000000E+00   0.00000000000000E+00   0.00000000000000E+00   0.00000000000000E+00
      0.00000000000000E+00  -3.75228260208085E-17
      1.05000000000000E-01
      0.00000000000000E+00   0.00000000000000E+00   0.00000000000000E+00   0.00000000000000E+00   8.20144239443924E-19
     -1.32715290791848E-12  -1.32715208777424E-12  -7.59626908769626E-18   4.20000000000000E-02   4.20000000000000E-02
      0.00000000000000E+00   0.00000000000000E+00   0.00000000000000E+00   0.00000000000000E+00   0.00000000000000E+00
      3.30393389525667E-17   0.00000000000000E+00   0.00000000000000E+00   0.00000000000000E+00   0.00000000000000E+00
      1.32715333173680E-12  -1.24396256629862E-18   1.32715208777424E-12   1.36488215291881E-17   1.90000000000000E-01
      1.90000000000000E-01   0.00000000000000E+00   0.00000000000000E+00   0.00000000000000E+00   0.00000000000000E+00
      0.00000000000000E+00  -3.90918913940585E-17
      1.20000000000000E-01
      0.00000000000000E+00   0.00000000000000E+00   0.00000000000000E+00   0.00000000000000E+00   8.21279218656392E-19
     -1.36444474101183E-12  -1.36444391973261E-12  -7.67112868164766E-18   4.80000000000000E-02   4.80000000000000E-02
      0.00000000000000E+00   0.00000000000000E+00   0.00000000000000E+00   0.00000000000000E+00   0.00000000000000E+00
      3.47487430697121E-17   0.00000000000000E+00   0.00000000000000E+00   0.00000000000000E+00   0.00000000000000E+00
      1.36444519185031E-12  -1.27211769948456E-18   1.36444391973261E-12   1.35835419140195E-17   1.90000000000000E-01
      1.90000000000000E-01   0.00000000000000E+00   0.00000000000000E+00   0.00000000000000E+00   0.00000000000000E+00
      0.00000000000000E+00  -4.06611563020839E-17
      1.35000000000000E-01
      0.00000000000000E+00   0.00000000000000E+00   0.00000000000000E+00   0.00000000000000E+00   8.36921236147101E-19
     -1.40531341735524E-12  -1.40531258043401E-12  -7.74563889165676E-18   5.40000000000000E-02   5.40000000000000E-02
      0.00000000000000E+00   0.00000000000000E+00   0.00000000000000E+00   0.00000000000000E+00   0.00000000000000E+00
      3.64579574038379E-17   0.00000000000000E+00   0.00000000000000E+00   0.00000000000000E+00   0.00000000000000E+00
      1.40531388907000E-12  -1.30863599162624E-18   1.40531258043401E-12   1.35182929408863E-17   1.90000000000000E-01
      1.90000000000000E-01   0.00000000000000E+00   0.00000000000000E+00   0.00000000000000E+00   0.00000000000000E+00
      0.00000000000000E+00  -4.22306114530675E-17
      1.50000000000000E-01
      0.00000000000000E+00   0.00000000000000E+00   0.00000000000000E+00   0.00000000000000E+00   8.71268975257846E-19
     -1.44976872408308E-12  -1.44976785281410E-12  -7.81981132045704E-18   6.00000000000000E-02   6.00000000000000E-02
      0.00000000000000E+00   0.00000000000000E+00   0.00000000000000E+00   0.00000000000000E+00   0.00000000000000E+00
      3.81669908008587E-17   0.00000000000000E+00   0.00000000000000E+00   0.00000000000000E+00   0.00000000000000E+00
      1.44976922211455E-12  -1.36930044892054E-18   1.44976785281410E-12   1.34530685635789E-17   1.90000000000000E-01
      1.90000000000000E-01   0.00000000000000E+00   0.00000000000000E+00   0.00000000000000E+00   0.00000000000000E+00
      0.00000000000000E+00  -4.38002480439805E-17
      1.65000000000000E-01
      0.00000000000000E+00   0.00000000000000E+00   0.00000000000000E+00   0.00000000000000E+00   9.29648750598705E-19
     -1.49784705834349E-12  -1.49784612869474E-12  -7.89365720319076E-18   6.60000000000000E-02   6.60000000000000E-02
      0.00000000000000E+00   0.00000000000000E+00   0.00000000000000E+00   0.00000000000000E+00   0.00000000000000E+00
      3.98758516413616E-17   0.00000000000000E+00   0.00000000000000E+00   0.00000000000000E+00   0.00000000000000E+00
      1.49784757149886E-12  -1.44280411466255E-18   1.49784612869474E-12   1.33878632852485E-17   1.90000000000000E-01
      1.90000000000000E-01   0.00000000000000E+00   0.00000000000000E+00   0.00000000000000E+00   0.00000000000000E+00
      0.00000000000000E+00  -4.53700577234193E-17
      1.80000000000000E-01
      0.00000000000000E+00   0.00000000000000E+00   0.00000000000000E+00   0.00000000000000E+00   1.01867023754085E-18
     -1.54961015815559E-12  -1.54960913948535E-12  -7.96718741628093E-18   7.20000000000000E-02   7.20000000000000E-02
      0.00000000000000E+00   0.00000000000000E+00   0.00000000000000E+00   0.00000000000000E+00   0.00000000000000E+00
      4.15845478768081E-17   0.00000000000000E+00   0.00000000000000E+00   0.00000000000000E+00   0.00000000000000E+00
      1.54961067307578E-12  -1.53359043271712E-18   1.54960913948535E-12   1.33226720972806E-17   1.90000000000000E-01
      1.90000000000000E-01   0.00000000000000E+00   0.00000000000000E+00   0.00000000000000E+00   0.00000000000000E+00
      0.00000000000000E+00  -4.69400325578078E-17
      1.95000000000000E-01
      0.00000000000000E+00   0.00000000000000E+00   0.00000000000000E+00   0.00000000000000E+00   1.14637465593031E-18
     -1.60514455482934E-12  -1.60514340845469E-12  -8.04041248637597E-18   7.80000000000000E-02   7.80000000000000E-02
      0.00000000000000E+00   0.00000000000000E+00   0.00000000000000E+00   0.00000000000000E+00   0.00000000000000E+00
      4.32930870623591E-17   0.00000000000000E+00   0.00000000000000E+00   0.00000000000000E+00   0.00000000000000E+00
      1.60514505558943E-12  -1.64713474184298E-18   1.60514340845469E-12   1.32574904246381E-17   1.90000000000000E-01
      1.90000000000000E-01   0.00000000000000E+00   0.00000000000000E+00   0.00000000000000E+00   0.00000000000000E+00
      0.00000000000000E+00  -4.85101650006212E-17
      2.10000000000000E-01
      0.00000000000000E+00   0.00000000000000E+00   0.00000000000000E+00   0.00000000000000E+00   1.32237162387381E-18
     -1.66456170064247E-12  -1.66456037827085E-12  -8.11334259932830E-18   8.40000000000000E-02   8.40000000000000E-02
      0.00000000000000E+00   0.00000000000000E+00   0.00000000000000E+00   0.00000000000000E+00   0.00000000000000E+00
      4.50014763866824E-17   0.00000000000000E+00   0.00000000000000E+00   0.00000000000000E+00   0.00000000000000E+00
      1.66456216041222E-12  -1.78214137216014E-18   1.66456037827085E-12   1.31923140769654E-17   1.90000000000000E-01
      1.90000000000000E-01   0.00000000000000E+00   0.00000000000000E+00   0.00000000000000E+00   0.00000000000000E+00
      0.00000000000000E+00  -5.00804478643194E-17
      2.25000000000000E-01
      0.00000000000000E+00   0.00000000000000E+00   0.00000000000000E+00   0.00000000000000E+00   1.55795517602012E-18
     -1.72799879404217E-12  -1.72799723608699E-12  -8.18598760917406E-18   9.00000000000000E-02   9.00000000000000E-02
      0.00000000000000E+00   0.00000000000000E+00   0.00000000000000E+00   0.00000000000000E+00   0.00000000000000E+00
      4.67097226990620E-17   0.00000000000000E+00   0.00000000000000E+00   0.00000000000000E+00   0.00000000000000E+00
      1.72799917958422E-12  -1.94349722254942E-18   1.72799723608699E-12   1.31271392048260E-17   1.90000000000000E-01
      1.90000000000000E-01   0.00000000000000E+00   0.00000000000000E+00   0.00000000000000E+00   0.00000000000000E+00
      0.00000000000000E+00  -5.16508742947139E-17
      2.40000000000000E-01
      0.00000000000000E+00   0.00000000000000E+00   0.00000000000000E+00   0.00000000000000E+00   1.86619048886760E-18
     -1.79562039953955E-12  -1.79561853334906E-12  -8.25835704708428E-18   9.60000000000000E-02   9.60000000000000E-02
      0.00000000000000E+00   0.00000000000000E+00   0.00000000000000E+00   0.00000000000000E+00   0.00000000000000E+00
      4.84178325340943E-17   0.00000000000000E+00   0.00000000000000E+00   0.00000000000000E+00   0.00000000000000E+00
      1.79562066637589E-12  -2.13302682899780E-18   1.79561853334906E-12   1.30619622605099E-17   1.90000000000000E-01
      1.90000000000000E-01   0.00000000000000E+00   0.00000000000000E+00   0.00000000000000E+00   0.00000000000000E+00
      0.00000000000000E+00  -5.32214377475199E-17
      2.55000000000000E-01
      0.00000000000000E+00   0.00000000000000E+00   0.00000000000000E+00   0.00000000000000E+00   2.26196372316729E-18
     -1.86762089661608E-12  -1.86761863465235E-12  -8.33046013026259E-18   1.02000000000000E-01   1.02000000000000E-01
      0.00000000000000E+00   0.00000000000000E+00   0.00000000000000E+00   0.00000000000000E+00   0.00000000000000E+00
      5.01258121342239E-17   0.00000000000000E+00   0.00000000000000E+00   0.00000000000000E+00   0.00000000000000E+00
      1.86762099081739E-12  -2.35616503181956E-18   1.86761863465235E-12   1.29967799629116E-17   1.90000000000000E-01
      1.90000000000000E-01   0.00000000000000E+00   0.00000000000000E+00   0.00000000000000E+00   0.00000000000000E+00
      0.00000000000000E+00  -5.47921319668728E-17
      2.70000000000000E-01
      0.00000000000000E+00   0.00000000000000E+00   0.00000000000000E+00   0.00000000000000E+00   2.76198676293821E-18
     -1.94422788171497E-12  -1.94422511972821E-12  -8.40230577076755E-18   1.08000000000000E-01   1.08000000000000E-01
      0.00000000000000E+00   0.00000000000000E+00   0.00000000000000E+00   0.00000000000000E+00   0.00000000000000E+00
      5.18336674703454E-17   0.00000000000000E+00   0.00000000000000E+00   0.00000000000000E+00   0.00000000000000E+00
      1.94422773091809E-12  -2.61118988298425E-18   1.94422511972821E-12   1.29315892660335E-17   1.90000000000000E-01
      1.90000000000000E-01   0.00000000000000E+00   0.00000000000000E+00   0.00000000000000E+00   0.00000000000000E+00
      0.00000000000000E+00  -5.63629509656114E-17
      2.85000000000000E-01
      0.00000000000000E+00   0.00000000000000E+00   0.00000000000000E+00   0.00000000000000E+00   3.38475683662677E-18
     -2.02570658472396E-12  -2.02570319996713E-12  -8.47390258424059E-18   1.14000000000000E-01   1.14000000000000E-01
      0.00000000000000E+00   0.00000000000000E+00   0.00000000000000E+00   0.00000000000000E+00   0.00000000000000E+00
      5.35414042606718E-17   0.00000000000000E+00   0.00000000000000E+00   0.00000000000000E+00   0.00000000000000E+00
      2.02570610856451E-12  -2.90859738156423E-18   2.02570319996713E-12   1.28663873307176E-17   1.90000000000000E-01
      1.90000000000000E-01   0.00000000000000E+00   0.00000000000000E+00   0.00000000000000E+00   0.00000000000000E+00
      0.00000000000000E+00  -5.79338890071489E-17
      3.00000000000000E-01
      0.00000000000000E+00   0.00000000000000E+00   0.00000000000000E+00   0.00000000000000E+00   4.15045228709315E-18
     -2.11236549688250E-12  -2.11236134643022E-12  -8.54525889852381E-18   1.20000000000000E-01   1.20000000000000E-01
      0.00000000000000E+00   0.00000000000000E+00   0.00000000000000E+00   0.00000000000000E+00   0.00000000000000E+00
      5.52490279880496E-17   0.00000000000000E+00   0.00000000000000E+00   0.00000000000000E+00   0.00000000000000E+00
      2.11236459728978E-12  -3.25085955992449E-18   2.11236134643022E-12   1.28011714992502E-17   1.90000000000000E-01
      1.90000000000000E-01   0.00000000000000E+00   0.00000000000000E+00   0.00000000000000E+00   0.00000000000000E+00
      0.00000000000000E+00  -5.95049405887760E-17
      3.15000000000000E-01
      0.00000000000000E+00   0.00000000000000E+00   0.00000000000000E+00   0.00000000000000E+00   5.08078180472866E-18
     -2.20456328221712E-12  -2.20455820143531E-12  -8.61638276215352E-18   1.26000000000000E-01   1.26000000000000E-01
      0.00000000000000E+00   0.00000000000000E+00   0.00000000000000E+00   0.00000000000000E+00   0.00000000000000E+00
      5.69565439158797E-17   0.00000000000000E+00   0.00000000000000E+00   0.00000000000000E+00   0.00000000000000E+00
      2.20456184709260E-12  -3.64565729242666E-18   2.20455820143531E-12   1.27359392725252E-17   1.90000000000000E-01
      1.90000000000000E-01   0.00000000000000E+00   0.00000000000000E+00   0.00000000000000E+00   0.00000000000000E+00
      0.00000000000000E+00  -6.10761004262513E-17
      3.30000000000000E-01
      0.00000000000000E+00   0.00000000000000E+00   0.00000000000000E+00   0.00000000000000E+00   6.19876457523109E-18
     -2.30271719064624E-12  -2.30271099188166E-12  -8.68728195271799E-18   1.32000000000000E-01   1.32000000000000E-01
      0.00000000000000E+00   0.00000000000000E+00   0.00000000000000E+00   0.00000000000000E+00   0.00000000000000E+00
      5.86639571027872E-17   0.00000000000000E+00   0.00000000000000E+00   0.00000000000000E+00   0.00000000000000E+00
      2.30271508929489E-12  -4.09741323729154E-18   2.30271099188166E-12   1.26706882894848E-17   1.90000000000000E-01
      1.90000000000000E-01   0.00000000000000E+00   0.00000000000000E+00   0.00000000000000E+00   0.00000000000000E+00
      0.00000000000000E+00  -6.26473634395540E-17
      3.45000000000000E-01
      0.00000000000000E+00   0.00000000000000E+00   0.00000000000000E+00   0.00000000000000E+00   7.52846370814094E-18
     -2.40731311362761E-12  -2.40730558516390E-12  -8.75796398506971E-18   1.38000000000000E-01   1.38000000000000E-01
      0.00000000000000E+00   0.00000000000000E+00   0.00000000000000E+00   0.00000000000000E+00   0.00000000000000E+00
      6.03712724161688E-17   0.00000000000000E+00   0.00000000000000E+00   0.00000000000000E+00   0.00000000000000E+00
      2.40731020182158E-12  -4.61665767097066E-18   2.40730558516391E-12   1.26054163085844E-17   1.90000000000000E-01
      1.90000000000000E-01   0.00000000000000E+00   0.00000000000000E+00   0.00000000000000E+00   0.00000000000000E+00
      0.00000000000000E+00  -6.42187247396835E-17
      3.60000000000000E-01
      0.00000000000000E+00   0.00000000000000E+00   0.00000000000000E+00   0.00000000000000E+00   9.09465842055329E-18
     -2.51891751604025E-12  -2.51890842138183E-12  -8.82843611938398E-18   1.44000000000000E-01   1.44000000000000E-01
      0.00000000000000E+00   0.00000000000000E+00   0.00000000000000E+00   0.00000000000000E+00   0.00000000000000E+00
      6.20784945447288E-17   0.00000000000000E+00   0.00000000000000E+00   0.00000000000000E+00   0.00000000000000E+00
      2.51891363235750E-12  -5.21097568099840E-18   2.51890842138182E-12   1.25401211910599E-17   1.90000000000000E-01
      1.90000000000000E-01   0.00000000000000E+00   0.00000000000000E+00   0.00000000000000E+00   0.00000000000000E+00
      0.00000000000000E+00  -6.57901796164048E-17
      3.75000000000000E-01
      0.00000000000000E+00   0.00000000000000E+00   0.00000000000000E+00   0.00000000000000E+00   1.09224701399719E-17
     -2.63819142291462E-12  -2.63818050044448E-12  -8.89870536905711E-18   1.50000000000000E-01   1.50000000000000E-01
      0.00000000000000E+00   0.00000000000000E+00   0.00000000000000E+00   0.00000000000000E+00   0.00000000000000E+00
      6.37856280101081E-17   0.00000000000000E+00   0.00000000000000E+00   0.00000000000000E+00   0.00000000000000E+00
      2.63818639337160E-12  -5.89292711840659E-18   2.63818050044448E-12   1.24748008857959E-17   1.90000000000000E-01
      1.90000000000000E-01   0.00000000000000E+00   0.00000000000000E+00   0.00000000000000E+00   0.00000000000000E+00
      0.00000000000000E+00  -6.73617235268469E-17
      3.90000000000000E-01
      0.00000000000000E+00   0.00000000000000E+00   0.00000000000000E+00   0.00000000000000E+00   1.30369472945456E-17
     -2.76590672432971E-12  -2.76589368738242E-12  -8.96877850843895E-18   1.56000000000000E-01   1.56000000000000E-01
      0.00000000000000E+00   0.00000000000000E+00   0.00000000000000E+00   0.00000000000000E+00   0.00000000000000E+00
      6.54926771776962E-17   0.00000000000000E+00   0.00000000000000E+00   0.00000000000000E+00   0.00000000000000E+00
      2.76590035906195E-12  -6.67167953852081E-18   2.76589368738242E-12   1.24094534156158E-17   1.90000000000000E-01
      1.90000000000000E-01   0.00000000000000E+00   0.00000000000000E+00   0.00000000000000E+00   0.00000000000000E+00
      0.00000000000000E+00  -6.89333520848731E-17
      4.05000000000000E-01
      0.00000000000000E+00   0.00000000000000E+00   0.00000000000000E+00   0.00000000000000E+00   1.54626209911521E-17
     -2.90296500983985E-12  -2.90294954721886E-12  -9.03866208039549E-18   1.62000000000000E-01   1.62000000000000E-01
      0.00000000000000E+00   0.00000000000000E+00   0.00000000000000E+00   0.00000000000000E+00   0.00000000000000E+00
      6.71996462667077E-17   0.00000000000000E+00   0.00000000000000E+00   0.00000000000000E+00   0.00000000000000E+00
      2.90295710979141E-12  -7.56257255354211E-18   2.90294954721885E-12   1.23440768648350E-17   1.90000000000000E-01
      1.90000000000000E-01   0.00000000000000E+00   0.00000000000000E+00   0.00000000000000E+00   0.00000000000000E+00
      0.00000000000000E+00  -7.05050610511472E-17
      4.20000000000000E-01
      0.00000000000000E+00   0.00000000000000E+00   0.00000000000000E+00   0.00000000000000E+00   1.82230327663159E-17
     -3.05041922608136E-12  -3.05040100304859E-12  -9.10836240369836E-18   1.68000000000000E-01   1.68000000000000E-01
      0.00000000000000E+00   0.00000000000000E+00   0.00000000000000E+00   0.00000000000000E+00   0.00000000000000E+00
      6.89065393595964E-17   0.00000000000000E+00   0.00000000000000E+00   0.00000000000000E+00   0.00000000000000E+00
      3.05040958460674E-12  -8.58155814975899E-18   3.05040100304859E-12   1.22786693679337E-17   1.90000000000000E-01
      1.90000000000000E-01   0.00000000000000E+00   0.00000000000000E+00   0.00000000000000E+00   0.00000000000000E+00
      0.00000000000000E+00  -7.20768463238317E-17
      4.35000000000000E-01
      0.00000000000000E+00   0.00000000000000E+00   0.00000000000000E+00   0.00000000000000E+00   2.13402537831869E-17
     -3.20949841278898E-12  -3.20947707253519E-12  -9.17788558023891E-18   1.74000000000000E-01   1.74000000000000E-01
      0.00000000000000E+00   0.00000000000000E+00   0.00000000000000E+00   0.00000000000000E+00   0.00000000000000E+00
      7.06133604108731E-17   0.00000000000000E+00   0.00000000000000E+00   0.00000000000000E+00   0.00000000000000E+00
      3.20948681698296E-12  -9.74444777053859E-18   3.20947707253519E-12   1.22132290992210E-17   1.90000000000000E-01
      1.90000000000000E-01   0.00000000000000E+00   0.00000000000000E+00   0.00000000000000E+00   0.00000000000000E+00
      0.00000000000000E+00  -7.36487039298552E-17
      4.50000000000000E-01
      0.00000000000000E+00   0.00000000000000E+00   0.00000000000000E+00   0.00000000000000E+00   2.48344074080539E-17
     -3.38163580321800E-12  -3.38161096881060E-12  -9.24723750206530E-18   1.80000000000000E-01   1.80000000000000E-01
      0.00000000000000E+00   0.00000000000000E+00   0.00000000000000E+00   0.00000000000000E+00   0.00000000000000E+00
      7.23201132553848E-17   0.00000000000000E+00   0.00000000000000E+00   0.00000000000000E+00   0.00000000000000E+00
      3.38162204318786E-12  -1.10743772574263E-17   3.38161096881060E-12   1.21477542633768E-17   1.90000000000000E-01
      1.90000000000000E-01   0.00000000000000E+00   0.00000000000000E+00   0.00000000000000E+00   0.00000000000000E+00
      0.00000000000000E+00  -7.52206300166964E-17
      4.65000000000000E-01
      0.00000000000000E+00   0.00000000000000E+00   0.00000000000000E+00   0.00000000000000E+00   2.87232017648613E-17
     -3.56850061572781E-12  -3.56847189252604E-12  -9.31642385824199E-18   1.86000000000000E-01   1.86000000000000E-01
      0.00000000000000E+00   0.00000000000000E+00   0.00000000000000E+00   0.00000000000000E+00   0.00000000000000E+00
      7.40268016161102E-17   0.00000000000000E+00   0.00000000000000E+00   0.00000000000000E+00   0.00000000000000E+00
      3.56848448679017E-12  -1.25942641243928E-17   3.56847189252604E-12   1.20822430867676E-17   1.90000000000000E-01
      1.90000000000000E-01   0.00000000000000E+00   0.00000000000000E+00   0.00000000000000E+00   0.00000000000000E+00
      0.00000000000000E+00  -7.67926208446358E-17
      4.80000000000000E-01
      0.00000000000000E+00   0.00000000000000E+00   0.00000000000000E+00   0.00000000000000E+00   3.30214823341367E-17
     -3.77203382829488E-12  -3.77200080681255E-12  -9.38545014153117E-18   1.92000000000000E-01   1.92000000000000E-01
      0.00000000000000E+00   0.00000000000000E+00   0.00000000000000E+00   0.00000000000000E+00   0.00000000000000E+00
      7.57334291115174E-17   0.00000000000000E+00   0.00000000000000E+00   0.00000000000000E+00   0.00000000000000E+00
      3.77201513712579E-12  -1.43303132406802E-17   3.77200080681255E-12   1.20166938094443E-17   1.90000000000000E-01
      1.90000000000000E-01   0.00000000000000E+00   0.00000000000000E+00   0.00000000000000E+00   0.00000000000000E+00
      0.00000000000000E+00  -7.83646727794305E-17
      4.95000000000000E-01
      0.00000000000000E+00   0.00000000000000E+00   0.00000000000000E+00   0.00000000000000E+00   3.77408189644025E-17
     -3.99448828362607E-12  -3.99445054280711E-12  -9.45432165489673E-18   1.98000000000000E-01   1.98000000000000E-01
      0.00000000000000E+00   0.00000000000000E+00   0.00000000000000E+00   0.00000000000000E+00   0.00000000000000E+00
      7.74399992625285E-17   0.00000000000000E+00   0.00000000000000E+00   0.00000000000000E+00   0.00000000000000E+00
      3.99446685439450E-12  -1.63115873969228E-17   3.99445054280711E-12   1.19511046777396E-17   1.90000000000000E-01
      1.90000000000000E-01   0.00000000000000E+00   0.00000000000000E+00   0.00000000000000E+00   0.00000000000000E+00
      0.00000000000000E+00  -7.99367822853714E-17
      5.10000000000000E-01
      0.00000000000000E+00   0.00000000000000E+00   0.00000000000000E+00   0.00000000000000E+00   4.28891648791684E-17
     -4.23847346449168E-12  -4.23843057532680E-12  -9.52304351783129E-18   2.04000000000000E-01   2.04000000000000E-01
      0.00000000000000E+00   0.00000000000000E+00   0.00000000000000E+00   0.00000000000000E+00   0.00000000000000E+00
      7.91465154991293E-17   0.00000000000000E+00   0.00000000000000E+00   0.00000000000000E+00   0.00000000000000E+00
      4.23844915000250E-12  -1.85746756964613E-17   4.23843057532680E-12   1.18854739373895E-17   1.90000000000000E-01
      1.90000000000000E-01   0.00000000000000E+00   0.00000000000000E+00   0.00000000000000E+00   0.00000000000000E+00
      0.00000000000000E+00  -8.15089459186875E-17
      5.25000000000000E-01
      0.00000000000000E+00   0.00000000000000E+00   0.00000000000000E+00   0.00000000000000E+00   4.84705230105196E-17
     -4.50700531978790E-12  -4.50695684926489E-12  -9.59162067250796E-18   2.10000000000000E-01   2.10000000000000E-01
      0.00000000000000E+00   0.00000000000000E+00   0.00000000000000E+00   0.00000000000000E+00   0.00000000000000E+00
      8.08529811666599E-17   0.00000000000000E+00   0.00000000000000E+00   0.00000000000000E+00   0.00000000000000E+00
      4.50697800861718E-12  -2.11593522916240E-17   4.50695684926489E-12   1.18197998271120E-17   1.90000000000000E-01
      1.90000000000000E-01   0.00000000000000E+00   0.00000000000000E+00   0.00000000000000E+00   0.00000000000000E+00
      0.00000000000000E+00  -8.30811603212639E-17
      5.40000000000000E-01
      0.00000000000000E+00   0.00000000000000E+00   0.00000000000000E+00   0.00000000000000E+00   5.44847049087603E-17
     -4.80356151312673E-12  -4.80350702842182E-12  -9.66005788975812E-18   2.16000000000000E-01   2.16000000000000E-01
      0.00000000000000E+00   0.00000000000000E+00   0.00000000000000E+00   0.00000000000000E+00   0.00000000000000E+00
      8.25593995318189E-17   0.00000000000000E+00   0.00000000000000E+00   0.00000000000000E+00   0.00000000000000E+00
      4.80353113863436E-12  -2.41102125373061E-17   4.80350702842183E-12   1.17540805725816E-17   1.90000000000000E-01
      1.90000000000000E-01   0.00000000000000E+00   0.00000000000000E+00   0.00000000000000E+00   0.00000000000000E+00
      0.00000000000000E+00  -8.46534222146424E-17
      5.55000000000000E-01
      0.00000000000000E+00   0.00000000000000E+00   0.00000000000000E+00   0.00000000000000E+00   6.09271587566390E-17