DF-ISE text

Info {
  version   = 1.0
  type      = xyplot
  datasets  = [
    "time"
    "source OuterVoltage" "source InnerVoltage" "source QuasiFermiPotential" "source DisplacementCurrent" "source eCurrent"
    "source hCurrent" "source TotalCurrent" "source Charge" "topGate OuterVoltage" "topGate InnerVoltage"
    "topGate QuasiFermiPotential" "topGate DisplacementCurrent" "topGate eCurrent" "topGate hCurrent" "topGate TotalCurrent"
    "topGate Charge" "drain OuterVoltage" "drain InnerVoltage" "drain QuasiFermiPotential" "drain DisplacementCurrent"
    "drain eCurrent" "drain hCurrent" "drain TotalCurrent" "drain Charge" "bottomGate OuterVoltage"
    "bottomGate InnerVoltage" "bottomGate QuasiFermiPotential" "bottomGate DisplacementCurrent" "bottomGate eCurrent" "bottomGate hCurrent"
    "bottomGate TotalCurrent" "bottomGate Charge" ]
  functions = [
    Time
    OuterVoltage InnerVoltage QuasiFermiPotential DisplacementCurrent eCurrent
    hCurrent TotalCurrent Charge OuterVoltage InnerVoltage
    QuasiFermiPotential DisplacementCurrent eCurrent hCurrent TotalCurrent
    Charge OuterVoltage InnerVoltage QuasiFermiPotential DisplacementCurrent
    eCurrent hCurrent TotalCurrent Charge OuterVoltage
    InnerVoltage QuasiFermiPotential DisplacementCurrent eCurrent hCurrent
    TotalCurrent Charge ]
}

Data {
      1.50000000000000E-02
      0.00000000000000E+00   0.00000000000000E+00   0.00000000000000E+00   0.00000000000000E+00  -4.91098670176278E-14
     -1.34854703186293E-09  -1.34859614172995E-09  -5.17598894946086E-18   6.00000000000000E-03   6.00000000000000E-03
      0.00000000000000E+00   0.00000000000000E+00   0.00000000000000E+00   0.00000000000000E+00   0.00000000000000E+00
      5.65661756202497E-17   2.50000000000000E-01   2.50000000000000E-01   0.00000000000000E+00   0.00000000000000E+00
      1.34867192451289E-09  -7.57827829404227E-14   1.34859614172995E-09   2.10154335260849E-17   5.00000000000000E-02
      5.00000000000000E-02   0.00000000000000E+00   0.00000000000000E+00   0.00000000000000E+00   0.00000000000000E+00
      0.00000000000000E+00  -7.24056201968737E-17
      3.00000000000000E-02
      0.00000000000000E+00   0.00000000000000E+00   0.00000000000000E+00   0.00000000000000E+00  -5.01844247476961E-14
     -1.34170092631024E-09  -1.34175111073499E-09  -5.26813508786343E-18   1.20000000000000E-02   1.20000000000000E-02
      0.00000000000000E+00   0.00000000000000E+00   0.00000000000000E+00   0.00000000000000E+00   0.00000000000000E+00
      5.82899641425388E-17   2.50000000000000E-01   2.50000000000000E-01   0.00000000000000E+00   0.00000000000000E+00
      1.34181952855494E-09  -6.84178199504288E-14   1.34175111073499E-09   2.09379035191186E-17   5.00000000000000E-02
      5.00000000000000E-02   0.00000000000000E+00   0.00000000000000E+00   0.00000000000000E+00   0.00000000000000E+00
      0.00000000000000E+00  -7.39597325737940E-17
      4.50000000000000E-02
      0.00000000000000E+00   0.00000000000000E+00   0.00000000000000E+00   0.00000000000000E+00  -5.12625474435187E-14
     -1.33621100871805E-09  -1.33626227126549E-09  -5.35941462892654E-18   1.80000000000000E-02   1.80000000000000E-02
      0.00000000000000E+00   0.00000000000000E+00   0.00000000000000E+00   0.00000000000000E+00   0.00000000000000E+00
      6.00126850506341E-17   2.50000000000000E-01   2.50000000000000E-01   0.00000000000000E+00   0.00000000000000E+00
      1.33632391326039E-09  -6.16419949022115E-14   1.33626227126549E-09   2.08616967321065E-17   5.00000000000000E-02
      5.00000000000000E-02   0.00000000000000E+00   0.00000000000000E+00   0.00000000000000E+00   0.00000000000000E+00
      0.00000000000000E+00  -7.55149671538141E-17
      6.00000000000000E-02
      0.00000000000000E+00   0.00000000000000E+00   0.00000000000000E+00   0.00000000000000E+00  -5.23448139733999E-14
     -1.33204018009693E-09  -1.33209252491091E-09  -5.44984956820877E-18   2.40000000000000E-02   2.40000000000000E-02
      0.00000000000000E+00   0.00000000000000E+00   0.00000000000000E+00   0.00000000000000E+00   0.00000000000000E+00
      6.17344127395529E-17   2.50000000000000E-01   2.50000000000000E-01   0.00000000000000E+00   0.00000000000000E+00
      1.33214793794300E-09  -5.54130320985846E-14   1.33209252491090E-09   2.07866832273644E-17   5.00000000000000E-02
      5.00000000000000E-02   0.00000000000000E+00   0.00000000000000E+00   0.00000000000000E+00   0.00000000000000E+00
      0.00000000000000E+00  -7.70712463987085E-17
      7.50000000000000E-02
      0.00000000000000E+00   0.00000000000000E+00   0.00000000000000E+00   0.00000000000000E+00  -5.34317573305351E-14
     -1.32915375179164E-09  -1.32920718354897E-09  -5.53946188438920E-18   3.00000000000000E-02   3.00000000000000E-02
      0.00000000000000E+00   0.00000000000000E+00   0.00000000000000E+00   0.00000000000000E+00   0.00000000000000E+00
      6.34552152600440E-17   2.50000000000000E-01   2.50000000000000E-01   0.00000000000000E+00   0.00000000000000E+00
      1.32925687468409E-09  -4.96911351205774E-14   1.32920718354897E-09   2.07127458179473E-17   5.00000000000000E-02
      5.00000000000000E-02   0.00000000000000E+00   0.00000000000000E+00   0.00000000000000E+00   0.00000000000000E+00
      0.00000000000000E+00  -7.86284991936020E-17
      9.00000000000000E-02
      0.00000000000000E+00   0.00000000000000E+00   0.00000000000000E+00   0.00000000000000E+00  -5.45238608461889E-14
     -1.32751935871578E-09  -1.32757388257663E-09  -5.62827347235595E-18   3.60000000000000E-02   3.60000000000000E-02
      0.00000000000000E+00   0.00000000000000E+00   0.00000000000000E+00   0.00000000000000E+00   0.00000000000000E+00
      6.51751549133878E-17   2.50000000000000E-01   2.50000000000000E-01   0.00000000000000E+00   0.00000000000000E+00
      1.32761832192184E-09  -4.44393452097353E-14   1.32757388257663E-09   2.06397788278638E-17   5.00000000000000E-02
      5.00000000000000E-02   0.00000000000000E+00   0.00000000000000E+00   0.00000000000000E+00   0.00000000000000E+00
      0.00000000000000E+00  -8.01866602688957E-17
      1.05000000000000E-01
      0.00000000000000E+00   0.00000000000000E+00   0.00000000000000E+00   0.00000000000000E+00  -5.56215545934934E-14
     -1.32710687849223E-09  -1.32716250004682E-09  -5.71630608431162E-18   4.20000000000000E-02   4.20000000000000E-02
      0.00000000000000E+00   0.00000000000000E+00   0.00000000000000E+00   0.00000000000000E+00   0.00000000000000E+00
      6.68942887896597E-17   2.50000000000000E-01   2.50000000000000E-01   0.00000000000000E+00   0.00000000000000E+00
      1.32720212280582E-09  -3.96227589965334E-14   1.32716250004682E-09   2.05676869690774E-17   5.00000000000000E-02
      5.00000000000000E-02   0.00000000000000E+00   0.00000000000000E+00   0.00000000000000E+00   0.00000000000000E+00
      0.00000000000000E+00  -8.17456696744255E-17
      1.20000000000000E-01
      0.00000000000000E+00   0.00000000000000E+00   0.00000000000000E+00   0.00000000000000E+00  -5.67252120788034E-14
     -1.32788835421454E-09  -1.32794507942662E-09  -5.80358127821034E-18   4.80000000000000E-02   4.80000000000000E-02
      0.00000000000000E+00   0.00000000000000E+00   0.00000000000000E+00   0.00000000000000E+00   0.00000000000000E+00
      6.86126692545328E-17   2.50000000000000E-01   2.50000000000000E-01   0.00000000000000E+00   0.00000000000000E+00
      1.32798028844816E-09  -3.52090215401611E-14   1.32794507942661E-09   2.04963843251648E-17   5.00000000000000E-02
      5.00000000000000E-02   0.00000000000000E+00   0.00000000000000E+00   0.00000000000000E+00   0.00000000000000E+00
      0.00000000000000E+00  -8.33054723014872E-17
      1.35000000000000E-01
      0.00000000000000E+00   0.00000000000000E+00   0.00000000000000E+00   0.00000000000000E+00  -5.78351473417671E-14
     -1.32983792343702E-09  -1.32989575858436E-09  -5.89012037287947E-18   5.40000000000000E-02   5.40000000000000E-02
      0.00000000000000E+00   0.00000000000000E+00   0.00000000000000E+00   0.00000000000000E+00   0.00000000000000E+00
      7.03303443893249E-17   2.50000000000000E-01   2.50000000000000E-01   0.00000000000000E+00   0.00000000000000E+00
      1.32992692620523E-09  -3.11676208687862E-14   1.32989575858437E-09   2.04257934321884E-17   5.00000000000000E-02
      5.00000000000000E-02   0.00000000000000E+00   0.00000000000000E+00   0.00000000000000E+00   0.00000000000000E+00
      0.00000000000000E+00  -8.48660174486338E-17
      1.50000000000000E-01
      0.00000000000000E+00   0.00000000000000E+00   0.00000000000000E+00   0.00000000000000E+00  -5.89516126010202E-14
     -1.33293175107046E-09  -1.33299070268306E-09  -5.97594440921750E-18   6.00000000000000E-02   6.00000000000000E-02
      0.00000000000000E+00   0.00000000000000E+00   0.00000000000000E+00   0.00000000000000E+00   0.00000000000000E+00
      7.20473583886246E-17   2.50000000000000E-01   2.50000000000000E-01   0.00000000000000E+00   0.00000000000000E+00
      1.33301817313277E-09  -2.74704497099125E-14   1.33299070268306E-09   2.03558444480299E-17   5.00000000000000E-02
      5.00000000000000E-02   0.00000000000000E+00   0.00000000000000E+00   0.00000000000000E+00   0.00000000000000E+00
      0.00000000000000E+00  -8.64272584274370E-17
      1.65000000000000E-01
      0.00000000000000E+00   0.00000000000000E+00   0.00000000000000E+00   0.00000000000000E+00  -6.00747965882843E-14
     -1.33714796901435E-09  -1.33720804381094E-09  -6.06107411690096E-18   6.60000000000000E-02   6.60000000000000E-02
      0.00000000000000E+00   0.00000000000000E+00   0.00000000000000E+00   0.00000000000000E+00   0.00000000000000E+00
      7.37637519194798E-17   2.50000000000000E-01   2.50000000000000E-01   0.00000000000000E+00   0.00000000000000E+00
      1.33723213477248E-09  -2.40909615414664E-14   1.33720804381094E-09   2.02864744020982E-17   5.00000000000000E-02
      5.00000000000000E-02   0.00000000000000E+00   0.00000000000000E+00   0.00000000000000E+00   0.00000000000000E+00
      0.00000000000000E+00  -8.79891522046770E-17
      1.80000000000000E-01
      0.00000000000000E+00   0.00000000000000E+00   0.00000000000000E+00   0.00000000000000E+00  -6.12048237089211E-14
     -1.34246662000678E-09  -1.34252782483049E-09  -6.14552988607139E-18   7.20000000000000E-02   7.20000000000000E-02
      0.00000000000000E+00   0.00000000000000E+00   0.00000000000000E+00   0.00000000000000E+00   0.00000000000000E+00
      7.54795624457951E-17   2.50000000000000E-01   2.50000000000000E-01   0.00000000000000E+00   0.00000000000000E+00
      1.34254882945103E-09  -2.10046205395107E-14   1.34252782483049E-09   2.02176265179706E-17   5.00000000000000E-02
      5.00000000000000E-02   0.00000000000000E+00   0.00000000000000E+00   0.00000000000000E+00   0.00000000000000E+00
      0.00000000000000E+00  -8.95516590776943E-17
      1.95000000000000E-01
      0.00000000000000E+00   0.00000000000000E+00   0.00000000000000E+00   0.00000000000000E+00  -6.23417541521009E-14
     -1.34886960803814E-09  -1.34893194979229E-09  -6.22933174351388E-18   7.80000000000000E-02   7.80000000000000E-02
      0.00000000000000E+00   0.00000000000000E+00   0.00000000000000E+00   0.00000000000000E+00   0.00000000000000E+00
      7.71948245212729E-17   2.50000000000000E-01   2.50000000000000E-01   0.00000000000000E+00   0.00000000000000E+00
      1.34895013830144E-09  -1.81885091447411E-14   1.34893194979229E-09   2.01492496021385E-17   5.00000000000000E-02
      5.00000000000000E-02   0.00000000000000E+00   0.00000000000000E+00   0.00000000000000E+00   0.00000000000000E+00
      0.00000000000000E+00  -9.11147423798975E-17
      2.10000000000000E-01
      0.00000000000000E+00   0.00000000000000E+00   0.00000000000000E+00   0.00000000000000E+00  -6.34855850494733E-14
     -1.35634065437950E-09  -1.35640413996455E-09  -6.31249933287544E-18   8.40000000000000E-02   8.40000000000000E-02
      0.00000000000000E+00   0.00000000000000E+00   0.00000000000000E+00   0.00000000000000E+00   0.00000000000000E+00
      7.89095700539290E-17   2.50000000000000E-01   2.50000000000000E-01   0.00000000000000E+00   0.00000000000000E+00
      1.35641976125450E-09  -1.56212899542748E-14   1.35640413996455E-09   2.00812974926113E-17   5.00000000000000E-02
      5.00000000000000E-02   0.00000000000000E+00   0.00000000000000E+00   0.00000000000000E+00   0.00000000000000E+00
      0.00000000000000E+00  -9.26783682136649E-17
      2.25000000000000E-01
      0.00000000000000E+00   0.00000000000000E+00   0.00000000000000E+00   0.00000000000000E+00  -6.46362527493875E-14
     -1.36486525982048E-09  -1.36492989607323E-09  -6.39505189850829E-18   9.00000000000000E-02   9.00000000000000E-02
      0.00000000000000E+00   0.00000000000000E+00   0.00000000000000E+00   0.00000000000000E+00   0.00000000000000E+00
      8.06238285449483E-17   2.50000000000000E-01   2.50000000000000E-01   0.00000000000000E+00   0.00000000000000E+00
      1.36494317929385E-09  -1.32832206282944E-14   1.36492989607322E-09   2.00137285616710E-17   5.00000000000000E-02
      5.00000000000000E-02   0.00000000000000E+00   0.00000000000000E+00   0.00000000000000E+00   0.00000000000000E+00
      0.00000000000000E+00  -9.42425052081111E-17
      2.40000000000000E-01
      0.00000000000000E+00   0.00000000000000E+00   0.00000000000000E+00   0.00000000000000E+00  -6.57936362363751E-14
     -1.37443067384194E-09  -1.37449646747818E-09  -6.47700827255750E-18   9.60000000000000E-02   9.60000000000000E-02
      0.00000000000000E+00   0.00000000000000E+00   0.00000000000000E+00   0.00000000000000E+00   0.00000000000000E+00
      8.23376273043832E-17   2.50000000000000E-01   2.50000000000000E-01   0.00000000000000E+00   0.00000000000000E+00
      1.37450762332341E-09  -1.11558452339000E-14   1.37449646747818E-09   1.99465052675803E-17   5.00000000000000E-02
      5.00000000000000E-02   0.00000000000000E+00   0.00000000000000E+00   0.00000000000000E+00   0.00000000000000E+00
      0.00000000000000E+00  -9.58071242994060E-17
      2.55000000000000E-01
      0.00000000000000E+00   0.00000000000000E+00   0.00000000000000E+00   0.00000000000000E+00  -6.69575616852194E-14
     -1.38502587040418E-09  -1.38509282796587E-09  -6.55838686494479E-18   1.02000000000000E-01   1.02000000000000E-01
      0.00000000000000E+00   0.00000000000000E+00   0.00000000000000E+00   0.00000000000000E+00   0.00000000000000E+00
      8.40509916459682E-17   2.50000000000000E-01   2.50000000000000E-01   0.00000000000000E+00   0.00000000000000E+00
      1.38510205006260E-09  -9.22209673567262E-15   1.38509282796587E-09   1.98795937505146E-17   5.00000000000000E-02
      5.00000000000000E-02   0.00000000000000E+00   0.00000000000000E+00   0.00000000000000E+00   0.00000000000000E+00
      0.00000000000000E+00  -9.73721985315380E-17
      2.70000000000000E-01
      0.00000000000000E+00   0.00000000000000E+00   0.00000000000000E+00   0.00000000000000E+00  -6.81278080980109E-14
     -1.39664153148707E-09  -1.39670965929517E-09  -6.63920565593119E-18   1.08000000000000E-01   1.08000000000000E-01
      0.00000000000000E+00   0.00000000000000E+00   0.00000000000000E+00   0.00000000000000E+00   0.00000000000000E+00
      8.57639450631062E-17   2.50000000000000E-01   2.50000000000000E-01   0.00000000000000E+00   0.00000000000000E+00
      1.39671712546264E-09  -7.46616747387084E-15   1.39670965929517E-09   1.98129634684229E-17   5.00000000000000E-02
      5.00000000000000E-02   0.00000000000000E+00   0.00000000000000E+00   0.00000000000000E+00   0.00000000000000E+00
      0.00000000000000E+00  -9.89377028755978E-17
      2.85000000000000E-01
      0.00000000000000E+00   0.00000000000000E+00   0.00000000000000E+00   0.00000000000000E+00  -6.93041139335307E-14
     -1.40927003883472E-09  -1.40933934294865E-09  -6.71948219096958E-18   1.14000000000000E-01   1.14000000000000E-01
      0.00000000000000E+00   0.00000000000000E+00   0.00000000000000E+00   0.00000000000000E+00   0.00000000000000E+00
      8.74765093878859E-17   2.50000000000000E-01   2.50000000000000E-01   0.00000000000000E+00   0.00000000000000E+00
      1.40934521622931E-09  -5.87328066096042E-15   1.40933934294865E-09   1.97465868689207E-17   5.00000000000000E-02
      5.00000000000000E-02   0.00000000000000E+00   0.00000000000000E+00   0.00000000000000E+00   0.00000000000000E+00
      0.00000000000000E+00  -1.00503614065837E-16
      3.00000000000000E-01
      0.00000000000000E+00   0.00000000000000E+00   0.00000000000000E+00   0.00000000000000E+00  -7.04861846032118E-14
     -1.42290547405388E-09  -1.42297596023848E-09  -6.79923357758472E-18   1.20000000000000E-01   1.20000000000000E-01
      0.00000000000000E+00   0.00000000000000E+00   0.00000000000000E+00   0.00000000000000E+00   0.00000000000000E+00
      8.91887049348106E-17   2.50000000000000E-01   2.50000000000000E-01   0.00000000000000E+00   0.00000000000000E+00
      1.42298039014503E-09  -4.42990654296122E-15   1.42297596023848E-09   1.96804390936850E-17   5.00000000000000E-02
      5.00000000000000E-02   0.00000000000000E+00   0.00000000000000E+00   0.00000000000000E+00   0.00000000000000E+00
      0.00000000000000E+00  -1.02069910450911E-16
      3.15000000000000E-01
      0.00000000000000E+00   0.00000000000000E+00   0.00000000000000E+00   0.00000000000000E+00  -7.16737006786176E-14
     -1.43754362881841E-09  -1.43761530251908E-09  -6.87847648404321E-18   1.26000000000000E-01   1.26000000000000E-01
      0.00000000000000E+00   0.00000000000000E+00   0.00000000000000E+00   0.00000000000000E+00   0.00000000000000E+00
      9.09005506307535E-17   2.50000000000000E-01   2.50000000000000E-01   0.00000000000000E+00   0.00000000000000E+00
      1.43761842600716E-09  -3.12348807984093E-15   1.43761530251908E-09   1.96144977121557E-17   5.00000000000000E-02
      5.00000000000000E-02   0.00000000000000E+00   0.00000000000000E+00   0.00000000000000E+00   0.00000000000000E+00
      0.00000000000000E+00  -1.03636571858866E-16
      3.30000000000000E-01
      0.00000000000000E+00   0.00000000000000E+00   0.00000000000000E+00   0.00000000000000E+00  -7.28663266329488E-14
     -1.45318202538980E-09  -1.45325489171643E-09  -6.95722713959806E-18   1.32000000000000E-01   1.32000000000000E-01
      0.00000000000000E+00   0.00000000000000E+00   0.00000000000000E+00   0.00000000000000E+00   0.00000000000000E+00
      9.26120641325067E-17   2.50000000000000E-01   2.50000000000000E-01   0.00000000000000E+00   0.00000000000000E+00
      1.45325683414315E-09  -1.94242671436798E-15   1.45325489171643E-09   1.95487424816546E-17   5.00000000000000E-02
      5.00000000000000E-02   0.00000000000000E+00   0.00000000000000E+00   0.00000000000000E+00   0.00000000000000E+00
      0.00000000000000E+00  -1.05203579474563E-16
      3.45000000000000E-01
      0.00000000000000E+00   0.00000000000000E+00   0.00000000000000E+00   0.00000000000000E+00  -7.40637199244690E-14
     -1.46981994894335E-09  -1.46989401266327E-09  -7.03550133611388E-18   1.38000000000000E-01   1.38000000000000E-01
      0.00000000000000E+00   0.00000000000000E+00   0.00000000000000E+00   0.00000000000000E+00   0.00000000000000E+00
      9.43232619331573E-17   2.50000000000000E-01   2.50000000000000E-01   0.00000000000000E+00   0.00000000000000E+00
      1.46989488862652E-09  -8.75963246217071E-16   1.46989401266327E-09   1.94831551313094E-17   5.00000000000000E-02
      5.00000000000000E-02   0.00000000000000E+00   0.00000000000000E+00   0.00000000000000E+00   0.00000000000000E+00
      0.00000000000000E+00  -1.06770915728353E-16
      3.60000000000000E-01
      0.00000000000000E+00   0.00000000000000E+00   0.00000000000000E+00   0.00000000000000E+00  -7.52655402229247E-14
     -1.48745849279263E-09  -1.48753375833286E-09  -7.11331443089745E-18   1.44000000000000E-01   1.44000000000000E-01
      0.00000000000000E+00   0.00000000000000E+00   0.00000000000000E+00   0.00000000000000E+00   0.00000000000000E+00
      9.60341594583990E-17   2.50000000000000E-01   2.50000000000000E-01   0.00000000000000E+00   0.00000000000000E+00
      1.48753367250454E-09   8.58283230351237E-17   1.48753375833286E-09   1.94177191674263E-17   5.00000000000000E-02
      5.00000000000000E-02   0.00000000000000E+00   0.00000000000000E+00   0.00000000000000E+00   0.00000000000000E+00
      0.00000000000000E+00  -1.08338564194928E-16
      3.75000000000000E-01
      0.00000000000000E+00   0.00000000000000E+00   0.00000000000000E+00   0.00000000000000E+00  -7.64714585809629E-14
     -1.50610061806573E-09  -1.50617708952432E-09  -7.19068135057617E-18   1.50000000000000E-01   1.50000000000000E-01
      0.00000000000000E+00   0.00000000000000E+00   0.00000000000000E+00   0.00000000000000E+00   0.00000000000000E+00
      9.77447711537804E-17   2.50000000000000E-01   2.50000000000000E-01   0.00000000000000E+00   0.00000000000000E+00
      1.50617613755764E-09   9.51966678808520E-16   1.50617708952432E-09   1.93524196981815E-17   5.00000000000000E-02
      5.00000000000000E-02   0.00000000000000E+00   0.00000000000000E+00   0.00000000000000E+00   0.00000000000000E+00
      0.00000000000000E+00  -1.09906509501386E-16
      3.90000000000000E-01
      0.00000000000000E+00   0.00000000000000E+00   0.00000000000000E+00   0.00000000000000E+00  -7.76811663604120E-14
     -1.52575123014376E-09  -1.52582891131012E-09  -7.26761659588303E-18   1.56000000000000E-01   1.56000000000000E-01
      0.00000000000000E+00   0.00000000000000E+00   0.00000000000000E+00   0.00000000000000E+00   0.00000000000000E+00
      9.94551105637887E-17   2.50000000000000E-01   2.50000000000000E-01   0.00000000000000E+00   0.00000000000000E+00
      1.52582718034577E-09   1.73096434943406E-15   1.52582891131012E-09   1.92872432757137E-17   5.00000000000000E-02
      5.00000000000000E-02   0.00000000000000E+00   0.00000000000000E+00   0.00000000000000E+00   0.00000000000000E+00
      0.00000000000000E+00  -1.11474737243619E-16
      4.05000000000000E-01
      0.00000000000000E+00   0.00000000000000E+00   0.00000000000000E+00   0.00000000000000E+00  -7.88943837371908E-14
     -1.54641727270965E-09  -1.54649616709338E-09  -7.34413424722042E-18   1.62000000000000E-01   1.62000000000000E-01
      0.00000000000000E+00   0.00000000000000E+00   0.00000000000000E+00   0.00000000000000E+00   0.00000000000000E+00
      1.01165190403578E-16   2.50000000000000E-01   2.50000000000000E-01   0.00000000000000E+00   0.00000000000000E+00
      1.54649373655699E-09   2.43053639732665E-15   1.54649616709338E-09   1.92221777538848E-17   5.00000000000000E-02
      5.00000000000000E-02   0.00000000000000E+00   0.00000000000000E+00   0.00000000000000E+00   0.00000000000000E+00
      0.00000000000000E+00  -1.13043233910243E-16
      4.20000000000000E-01
      0.00000000000000E+00   0.00000000000000E+00   0.00000000000000E+00   0.00000000000000E+00  -8.01108676272878E-14
     -1.56810784285970E-09  -1.56818795372733E-09  -7.42024797088972E-18   1.68000000000000E-01   1.68000000000000E-01
      0.00000000000000E+00   0.00000000000000E+00   0.00000000000000E+00   0.00000000000000E+00   0.00000000000000E+00
      1.02875022624074E-16   2.50000000000000E-01   2.50000000000000E-01   0.00000000000000E+00   0.00000000000000E+00
      1.56818489595994E-09   3.05776739305432E-15   1.56818795372733E-09   1.91572121601507E-17   5.00000000000000E-02
      5.00000000000000E-02   0.00000000000000E+00   0.00000000000000E+00   0.00000000000000E+00   0.00000000000000E+00
      0.00000000000000E+00  -1.14611986813335E-16
      4.35000000000000E-01
      0.00000000000000E+00   0.00000000000000E+00   0.00000000000000E+00   0.00000000000000E+00  -8.13304188985546E-14
     -1.59083432934813E-09  -1.59091565976703E-09  -7.49597102588425E-18   1.74000000000000E-01   1.74000000000000E-01
      0.00000000000000E+00   0.00000000000000E+00   0.00000000000000E+00   0.00000000000000E+00   0.00000000000000E+00
      1.04584618471101E-16   2.50000000000000E-01   2.50000000000000E-01   0.00000000000000E+00   0.00000000000000E+00
      1.59091204057432E-09   3.61919271067776E-15   1.59091565976703E-09   1.90923365801354E-17   5.00000000000000E-02
      5.00000000000000E-02   0.00000000000000E+00   0.00000000000000E+00   0.00000000000000E+00   0.00000000000000E+00
      0.00000000000000E+00  -1.16180984025352E-16
      4.50000000000000E-01
      0.00000000000000E+00   0.00000000000000E+00   0.00000000000000E+00   0.00000000000000E+00  -8.25528887573850E-14
     -1.61461057692439E-09  -1.61469312981315E-09  -7.57131627115476E-18   1.80000000000000E-01   1.80000000000000E-01
      0.00000000000000E+00   0.00000000000000E+00   0.00000000000000E+00   0.00000000000000E+00   0.00000000000000E+00
      1.06293988539133E-16   2.50000000000000E-01   2.50000000000000E-01   0.00000000000000E+00   0.00000000000000E+00
      1.61468900901077E-09   4.12080237945740E-15   1.61469312981315E-09   1.90275420536429E-17   5.00000000000000E-02
      5.00000000000000E-02   0.00000000000000E+00   0.00000000000000E+00   0.00000000000000E+00   0.00000000000000E+00
      0.00000000000000E+00  -1.17750214321621E-16
      4.65000000000000E-01
      0.00000000000000E+00   0.00000000000000E+00   0.00000000000000E+00   0.00000000000000E+00  -8.37781842247182E-14
     -1.63945308020799E-09  -1.63953685839222E-09  -7.64629617326647E-18   1.86000000000000E-01   1.86000000000000E-01
      0.00000000000000E+00   0.00000000000000E+00   0.00000000000000E+00   0.00000000000000E+00   0.00000000000000E+00
      1.08003142820191E-16   2.50000000000000E-01   2.50000000000000E-01   0.00000000000000E+00   0.00000000000000E+00
      1.63953229029338E-09   4.56809883760259E-15   1.63953685839222E-09   1.89628204809663E-17   5.00000000000000E-02
      5.00000000000000E-02   0.00000000000000E+00   0.00000000000000E+00   0.00000000000000E+00   0.00000000000000E+00
      0.00000000000000E+00  -1.19319667127891E-16
      4.80000000000000E-01
      0.00000000000000E+00   0.00000000000000E+00   0.00000000000000E+00   0.00000000000000E+00  -8.50062726411080E-14
     -1.66538121071654E-09  -1.66546621698918E-09  -7.72092281437498E-18   1.92000000000000E-01   1.92000000000000E-01
      0.00000000000000E+00   0.00000000000000E+00   0.00000000000000E+00   0.00000000000000E+00   0.00000000000000E+00
      1.09712090748357E-16   2.50000000000000E-01   2.50000000000000E-01   0.00000000000000E+00   0.00000000000000E+00
      1.66546125086219E-09   4.96612699049126E-15   1.66546621698919E-09   1.88981645384678E-17   5.00000000000000E-02
      5.00000000000000E-02   0.00000000000000E+00   0.00000000000000E+00   0.00000000000000E+00   0.00000000000000E+00
      0.00000000000000E+00  -1.20889332472449E-16
      4.95000000000000E-01
      0.00000000000000E+00   0.00000000000000E+00   0.00000000000000E+00   0.00000000000000E+00  -8.62371851642771E-14
     -1.69241748116001E-09  -1.69250371834518E-09  -7.79520790045700E-18   1.98000000000000E-01   1.98000000000000E-01
      0.00000000000000E+00   0.00000000000000E+00   0.00000000000000E+00   0.00000000000000E+00   0.00000000000000E+00
      1.11420841240348E-16   2.50000000000000E-01   2.50000000000000E-01   0.00000000000000E+00   0.00000000000000E+00
      1.69249839885684E-09   5.31948833525440E-15   1.69250371834518E-09   1.88335676025051E-17   5.00000000000000E-02
      5.00000000000000E-02   0.00000000000000E+00   0.00000000000000E+00   0.00000000000000E+00   0.00000000000000E+00
      0.00000000000000E+00  -1.22459200942396E-16
      5.10000000000000E-01
      0.00000000000000E+00   0.00000000000000E+00   0.00000000000000E+00   0.00000000000000E+00  -8.74710192451759E-14
     -1.72058785156622E-09  -1.72067532258547E-09  -7.86916276973876E-18   2.04000000000000E-01   2.04000000000000E-01
      0.00000000000000E+00   0.00000000000000E+00   0.00000000000000E+00   0.00000000000000E+00   0.00000000000000E+00
      1.13129402732522E-16   2.50000000000000E-01   2.50000000000000E-01   0.00000000000000E+00   0.00000000000000E+00
      1.72066969020366E-09   5.63238181044771E-15   1.72067532258547E-09   1.87690236808732E-17   5.00000000000000E-02
      5.00000000000000E-02   0.00000000000000E+00   0.00000000000000E+00   0.00000000000000E+00   0.00000000000000E+00
      0.00000000000000E+00  -1.24029263643657E-16
      5.25000000000000E-01
      0.00000000000000E+00   0.00000000000000E+00   0.00000000000000E+00   0.00000000000000E+00  -8.87079400878632E-14
     -1.74992208219348E-09  -1.75001079013357E-09  -7.94279840127135E-18   2.10000000000000E-01   2.10000000000000E-01
      0.00000000000000E+00   0.00000000000000E+00   0.00000000000000E+00   0.00000000000000E+00   0.00000000000000E+00
      1.14837783214667E-16   2.50000000000000E-01   2.50000000000000E-01   0.00000000000000E+00   0.00000000000000E+00
      1.75000488146337E-09   5.90867020233625E-15   1.75001079013357E-09   1.87045273510113E-17   5.00000000000000E-02
      5.00000000000000E-02   0.00000000000000E+00   0.00000000000000E+00   0.00000000000000E+00   0.00000000000000E+00
      0.00000000000000E+00  -1.25599512164407E-16
      5.40000000000000E-01
      0.00000000000000E+00   0.00000000000000E+00   0.00000000000000E+00   0.00000000000000E+00  -8.99481811159303E-14
     -1.78045413851737E-09  -1.78054408669849E-09  -8.01612542360828E-18   2.16000000000000E-01   2.16000000000000E-01
      0.00000000000000E+00   0.00000000000000E+00   0.00000000000000E+00   0.00000000000000E+00   0.00000000000000E+00
      1.16545990260878E-16   2.50000000000000E-01   2.50000000000000E-01   0.00000000000000E+00   0.00000000000000E+00
      1.78053793484017E-09   6.15185831423523E-15   1.78054408669849E-09   1.86400737043025E-17   5.00000000000000E-02
      5.00000000000000E-02   0.00000000000000E+00   0.00000000000000E+00   0.00000000000000E+00   0.00000000000000E+00
      0.00000000000000E+00  -1.27169938541572E-16
      5.55000000000000E-01
      0.00000000000000E+00   0.00000000000000E+00   0.00000000000000E+00   0.00000000000000E+00  -9.11920434819789E-14