DF-ISE text

Info {
  version   = 1.0
  type      = xyplot
  datasets  = [
    "time"
    "source OuterVoltage" "source InnerVoltage" "source QuasiFermiPotential" "source DisplacementCurrent" "source eCurrent"
    "source hCurrent" "source TotalCurrent" "source Charge" "topGate OuterVoltage" "topGate InnerVoltage"
    "topGate QuasiFermiPotential" "topGate DisplacementCurrent" "topGate eCurrent" "topGate hCurrent" "topGate TotalCurrent"
    "topGate Charge" "drain OuterVoltage" "drain InnerVoltage" "drain QuasiFermiPotential" "drain DisplacementCurrent"
    "drain eCurrent" "drain hCurrent" "drain TotalCurrent" "drain Charge" "bottomGate OuterVoltage"
    "bottomGate InnerVoltage" "bottomGate QuasiFermiPotential" "bottomGate DisplacementCurrent" "bottomGate eCurrent" "bottomGate hCurrent"
    "bottomGate TotalCurrent" "bottomGate Charge" ]
  functions = [
    Time
    OuterVoltage InnerVoltage QuasiFermiPotential DisplacementCurrent eCurrent
    hCurrent TotalCurrent Charge OuterVoltage InnerVoltage
    QuasiFermiPotential DisplacementCurrent eCurrent hCurrent TotalCurrent
    Charge OuterVoltage InnerVoltage QuasiFermiPotential DisplacementCurrent
    eCurrent hCurrent TotalCurrent Charge OuterVoltage
    InnerVoltage QuasiFermiPotential DisplacementCurrent eCurrent hCurrent
    TotalCurrent Charge ]
}

Data {
      1.50000000000000E-02
      0.00000000000000E+00   0.00000000000000E+00   0.00000000000000E+00   0.00000000000000E+00  -1.26713564819795E-13
     -1.02865237687018E-11  -1.04132373335216E-11  -1.35140866001408E-17   6.00000000000000E-03   6.00000000000000E-03
      0.00000000000000E+00   0.00000000000000E+00   0.00000000000000E+00   0.00000000000000E+00   0.00000000000000E+00
     -6.40255883479758E-17   2.00000000000000E-02   2.00000000000000E-02   0.00000000000000E+00   0.00000000000000E+00
      1.04121646933358E-11   1.07264018583135E-15   1.04132373335216E-11   8.23201407471914E-18   2.50000000000000E-01
      2.50000000000000E-01   0.00000000000000E+00   0.00000000000000E+00   0.00000000000000E+00   0.00000000000000E+00
      0.00000000000000E+00   6.93076608733975E-17
      3.00000000000000E-02
      0.00000000000000E+00   0.00000000000000E+00   0.00000000000000E+00   0.00000000000000E+00  -1.27795459406098E-13
     -9.82475914832701E-12  -9.95255460773311E-12  -1.35788683343656E-17   1.20000000000000E-02   1.20000000000000E-02
      0.00000000000000E+00   0.00000000000000E+00   0.00000000000000E+00   0.00000000000000E+00   0.00000000000000E+00
     -6.23175119672377E-17   2.00000000000000E-02   2.00000000000000E-02   0.00000000000000E+00   0.00000000000000E+00
      9.95149431368990E-12   1.06029404320133E-15   9.95255460773310E-12   8.15931131127671E-18   2.50000000000000E-01
      2.50000000000000E-01   0.00000000000000E+00   0.00000000000000E+00   0.00000000000000E+00   0.00000000000000E+00
      0.00000000000000E+00   6.77370689903265E-17
      4.50000000000000E-02
      0.00000000000000E+00   0.00000000000000E+00   0.00000000000000E+00   0.00000000000000E+00  -1.28879260977999E-13
     -9.38942630606632E-12  -9.51830556704432E-12  -1.36436279222115E-17   1.80000000000000E-02   1.80000000000000E-02
      0.00000000000000E+00   0.00000000000000E+00   0.00000000000000E+00   0.00000000000000E+00   0.00000000000000E+00
     -6.06092945821094E-17   2.00000000000000E-02   2.00000000000000E-02   0.00000000000000E+00   0.00000000000000E+00
      9.51725816011042E-12   1.04740693389731E-15   9.51830556704432E-12   8.08630333360330E-18   2.50000000000000E-01
      2.50000000000000E-01   0.00000000000000E+00   0.00000000000000E+00   0.00000000000000E+00   0.00000000000000E+00
      0.00000000000000E+00   6.61666191707176E-17
      6.00000000000000E-02
      0.00000000000000E+00   0.00000000000000E+00   0.00000000000000E+00   0.00000000000000E+00  -1.29964945690665E-13
     -8.97900951768201E-12  -9.10897446337268E-12  -1.37083659452392E-17   2.40000000000000E-02   2.40000000000000E-02
      0.00000000000000E+00   0.00000000000000E+00   0.00000000000000E+00   0.00000000000000E+00   0.00000000000000E+00
     -5.89009296377645E-17   2.00000000000000E-02   2.00000000000000E-02   0.00000000000000E+00   0.00000000000000E+00
      9.10794040256721E-12   1.03406080545867E-15   9.10897446337267E-12   8.01297754954059E-18   2.50000000000000E-01
      2.50000000000000E-01   0.00000000000000E+00   0.00000000000000E+00   0.00000000000000E+00   0.00000000000000E+00
      0.00000000000000E+00   6.45963180334631E-17
      7.50000000000000E-02
      0.00000000000000E+00   0.00000000000000E+00   0.00000000000000E+00   0.00000000000000E+00  -1.31052489533503E-13
     -8.59214821933193E-12  -8.72320070886544E-12  -1.37730829655839E-17   3.00000000000000E-02   3.00000000000000E-02
      0.00000000000000E+00   0.00000000000000E+00   0.00000000000000E+00   0.00000000000000E+00   0.00000000000000E+00
     -5.71924102590121E-17   2.00000000000000E-02   2.00000000000000E-02   0.00000000000000E+00   0.00000000000000E+00
      8.72218037542868E-12   1.02033343673916E-15   8.72320070886542E-12   7.93932070562107E-18   2.50000000000000E-01
      2.50000000000000E-01   0.00000000000000E+00   0.00000000000000E+00   0.00000000000000E+00   0.00000000000000E+00
      0.00000000000000E+00   6.30261725189750E-17
      9.00000000000000E-02
      0.00000000000000E+00   0.00000000000000E+00   0.00000000000000E+00   0.00000000000000E+00  -1.32141868144882E-13
     -8.22761894098854E-12  -8.35976080913342E-12  -1.38377795264451E-17   3.60000000000000E-02   3.60000000000000E-02
      0.00000000000000E+00   0.00000000000000E+00   0.00000000000000E+00   0.00000000000000E+00   0.00000000000000E+00
     -5.54837292258664E-17   2.00000000000000E-02   2.00000000000000E-02   0.00000000000000E+00   0.00000000000000E+00
      8.35875451162331E-12   1.00629751011810E-15   8.35976080913342E-12   7.86531883926775E-18   2.50000000000000E-01
      2.50000000000000E-01   0.00000000000000E+00   0.00000000000000E+00   0.00000000000000E+00   0.00000000000000E+00
      0.00000000000000E+00   6.14561899130438E-17
      1.05000000000000E-01
      0.00000000000000E+00   0.00000000000000E+00   0.00000000000000E+00   0.00000000000000E+00  -1.33233054895326E-13
     -7.88432018053987E-12  -8.01755323543520E-12  -1.39024561525362E-17   4.20000000000000E-02   4.20000000000000E-02
      0.00000000000000E+00   0.00000000000000E+00   0.00000000000000E+00   0.00000000000000E+00   0.00000000000000E+00
     -5.37748789467667E-17   2.00000000000000E-02   2.00000000000000E-02   0.00000000000000E+00   0.00000000000000E+00
      8.01656121552955E-12   9.92019905665887E-16   8.01755323543522E-12   7.79095722640441E-18   2.50000000000000E-01
      2.50000000000000E-01   0.00000000000000E+00   0.00000000000000E+00   0.00000000000000E+00   0.00000000000000E+00
      0.00000000000000E+00   5.98863778728985E-17
      1.20000000000000E-01
      0.00000000000000E+00   0.00000000000000E+00   0.00000000000000E+00   0.00000000000000E+00  -1.34326025589625E-13
     -7.56125991663998E-12  -7.69558594222960E-12  -1.39671133504944E-17   4.80000000000000E-02   4.80000000000000E-02
      0.00000000000000E+00   0.00000000000000E+00   0.00000000000000E+00   0.00000000000000E+00   0.00000000000000E+00
     -5.20658514291778E-17   2.00000000000000E-02   2.00000000000000E-02   0.00000000000000E+00   0.00000000000000E+00
      7.69460838101707E-12   9.77561212519799E-16   7.69558594222959E-12   7.71622032396057E-18   2.50000000000000E-01
      2.50000000000000E-01   0.00000000000000E+00   0.00000000000000E+00   0.00000000000000E+00   0.00000000000000E+00
      0.00000000000000E+00   5.83167444557116E-17
      1.35000000000000E-01
      0.00000000000000E+00   0.00000000000000E+00   0.00000000000000E+00   0.00000000000000E+00  -1.35420754782103E-13
     -7.25754548429316E-12  -7.39296623907526E-12  -1.40317516092481E-17   5.40000000000000E-02   5.40000000000000E-02
      0.00000000000000E+00   0.00000000000000E+00   0.00000000000000E+00   0.00000000000000E+00   0.00000000000000E+00
     -5.03566382472662E-17   2.00000000000000E-02   2.00000000000000E-02   0.00000000000000E+00   0.00000000000000E+00
      7.39200326361268E-12   9.62975462557180E-16   7.39296623907524E-12   7.64109170669361E-18   2.50000000000000E-01
      2.50000000000000E-01   0.00000000000000E+00   0.00000000000000E+00   0.00000000000000E+00   0.00000000000000E+00
      0.00000000000000E+00   5.67472981498208E-17
      1.50000000000000E-01
      0.00000000000000E+00   0.00000000000000E+00   0.00000000000000E+00   0.00000000000000E+00  -1.36517215860158E-13
     -6.97237556416720E-12  -7.10889278002736E-12  -1.40963714003415E-17   6.00000000000000E-02   6.00000000000000E-02
      0.00000000000000E+00   0.00000000000000E+00   0.00000000000000E+00   0.00000000000000E+00   0.00000000000000E+00
     -4.86472305063129E-17   2.00000000000000E-02   2.00000000000000E-02   0.00000000000000E+00   0.00000000000000E+00
      7.10794446996932E-12   9.48310058025389E-16   7.10889278002735E-12   7.56555399768225E-18   2.50000000000000E-01
      2.50000000000000E-01   0.00000000000000E+00   0.00000000000000E+00   0.00000000000000E+00   0.00000000000000E+00
      0.00000000000000E+00   5.51780479089720E-17
      1.65000000000000E-01
      0.00000000000000E+00   0.00000000000000E+00   0.00000000000000E+00   0.00000000000000E+00  -1.37615382099183E-13
     -6.70503406456362E-12  -6.84264944666280E-12  -1.41609731782116E-17   6.60000000000000E-02   6.60000000000000E-02
      0.00000000000000E+00   0.00000000000000E+00   0.00000000000000E+00   0.00000000000000E+00   0.00000000000000E+00
     -4.69376188034788E-17   2.00000000000000E-02   2.00000000000000E-02   0.00000000000000E+00   0.00000000000000E+00
      6.84171584077568E-12   9.33605887121585E-16   6.84264944666280E-12   7.48958879176743E-18   2.50000000000000E-01
      2.50000000000000E-01   0.00000000000000E+00   0.00000000000000E+00   0.00000000000000E+00   0.00000000000000E+00
      0.00000000000000E+00   5.36090031899230E-17
      1.80000000000000E-01
      0.00000000000000E+00   0.00000000000000E+00   0.00000000000000E+00   0.00000000000000E+00  -1.38715228990141E-13
     -6.45488570342666E-12  -6.59360093241680E-12  -1.42255573804193E-17   7.20000000000000E-02   7.20000000000000E-02
      0.00000000000000E+00   0.00000000000000E+00   0.00000000000000E+00   0.00000000000000E+00   0.00000000000000E+00
     -4.52277931844979E-17   2.00000000000000E-02   2.00000000000000E-02   0.00000000000000E+00   0.00000000000000E+00
      6.59268203482857E-12   9.18897588230067E-16   6.59360093241680E-12   7.41317657113100E-18   2.50000000000000E-01
      2.50000000000000E-01   0.00000000000000E+00   0.00000000000000E+00   0.00000000000000E+00   0.00000000000000E+00
      0.00000000000000E+00   5.20401739937862E-17
      1.95000000000000E-01
      0.00000000000000E+00   0.00000000000000E+00   0.00000000000000E+00   0.00000000000000E+00  -1.39816729131730E-13
     -6.22137312654512E-12  -6.36118985567685E-12  -1.42901244278270E-17   7.80000000000000E-02   7.80000000000000E-02
      0.00000000000000E+00   0.00000000000000E+00   0.00000000000000E+00   0.00000000000000E+00   0.00000000000000E+00
     -4.35177430958132E-17   2.00000000000000E-02   2.00000000000000E-02   0.00000000000000E+00   0.00000000000000E+00
      6.36028564173681E-12   9.04213940032306E-16   6.36118985567685E-12   7.33629661210495E-18   2.50000000000000E-01
      2.50000000000000E-01   0.00000000000000E+00   0.00000000000000E+00   0.00000000000000E+00   0.00000000000000E+00
      0.00000000000000E+00   5.04715709115353E-17
      2.10000000000000E-01
      0.00000000000000E+00   0.00000000000000E+00   0.00000000000000E+00   0.00000000000000E+00  -1.40919856583065E-13
     -6.00401542680101E-12  -6.14493528338407E-12  -1.43546747247225E-17   8.40000000000000E-02   8.40000000000000E-02
      0.00000000000000E+00   0.00000000000000E+00   0.00000000000000E+00   0.00000000000000E+00   0.00000000000000E+00
     -4.18074573316218E-17   2.00000000000000E-02   2.00000000000000E-02   0.00000000000000E+00   0.00000000000000E+00
      6.14404570503946E-12   8.89578344611027E-16   6.14493528338407E-12   7.25892688219588E-18   2.50000000000000E-01
      2.50000000000000E-01   0.00000000000000E+00   0.00000000000000E+00   0.00000000000000E+00   0.00000000000000E+00
      0.00000000000000E+00   4.89032051741484E-17
      2.25000000000000E-01
      0.00000000000000E+00   0.00000000000000E+00   0.00000000000000E+00   0.00000000000000E+00  -1.42024584602505E-13
     -5.80240795767976E-12  -5.94443254228227E-12  -1.44192086588844E-17   9.00000000000000E-02   9.00000000000000E-02
      0.00000000000000E+00   0.00000000000000E+00   0.00000000000000E+00   0.00000000000000E+00   0.00000000000000E+00
     -4.00969239752199E-17   2.00000000000000E-02   2.00000000000000E-02   0.00000000000000E+00   0.00000000000000E+00
      5.94355753291483E-12   8.75009367435829E-16   5.94443254228227E-12   7.18104392618713E-18   2.50000000000000E-01
      2.50000000000000E-01   0.00000000000000E+00   0.00000000000000E+00   0.00000000000000E+00   0.00000000000000E+00
      0.00000000000000E+00   4.73350887079172E-17
      2.40000000000000E-01
      0.00000000000000E+00   0.00000000000000E+00   0.00000000000000E+00   0.00000000000000E+00  -1.43130888963960E-13
     -5.61622336198689E-12  -5.75935425095085E-12  -1.44837266015833E-17   9.60000000000000E-02   9.60000000000000E-02
      0.00000000000000E+00   0.00000000000000E+00   0.00000000000000E+00   0.00000000000000E+00   0.00000000000000E+00
     -3.83861303339732E-17   2.00000000000000E-02   2.00000000000000E-02   0.00000000000000E+00   0.00000000000000E+00
      5.75849372964434E-12   8.60521306509694E-16   5.75935425095085E-12   7.10262274004515E-18   2.50000000000000E-01
      2.50000000000000E-01   0.00000000000000E+00   0.00000000000000E+00   0.00000000000000E+00   0.00000000000000E+00
      0.00000000000000E+00   4.57672341955113E-17
      2.55000000000000E-01
      0.00000000000000E+00   0.00000000000000E+00   0.00000000000000E+00   0.00000000000000E+00  -1.44238741238745E-13
     -5.44521376353576E-12  -5.58945250477451E-12  -1.45482289075146E-17   1.02000000000000E-01   1.02000000000000E-01
      0.00000000000000E+00   0.00000000000000E+00   0.00000000000000E+00   0.00000000000000E+00   0.00000000000000E+00
     -3.66750628671504E-17   2.00000000000000E-02   2.00000000000000E-02   0.00000000000000E+00   0.00000000000000E+00
      5.58860638001477E-12   8.46124759742051E-16   5.58945250477451E-12   7.02363663120413E-18   2.50000000000000E-01
      2.50000000000000E-01   0.00000000000000E+00   0.00000000000000E+00   0.00000000000000E+00   0.00000000000000E+00
      0.00000000000000E+00   4.41996551434609E-17
      2.70000000000000E-01
      0.00000000000000E+00   0.00000000000000E+00   0.00000000000000E+00   0.00000000000000E+00  -1.45348114618712E-13
     -5.28921409526480E-12  -5.43456220988351E-12  -1.46127159146576E-17   1.08000000000000E-01   1.08000000000000E-01
      0.00000000000000E+00   0.00000000000000E+00   0.00000000000000E+00   0.00000000000000E+00   0.00000000000000E+00
     -3.49637071057662E-17   2.00000000000000E-02   2.00000000000000E-02   0.00000000000000E+00   0.00000000000000E+00
      5.43373038271590E-12   8.31827167612901E-16   5.43456220988351E-12   6.94405706363211E-18   2.50000000000000E-01
      2.50000000000000E-01   0.00000000000000E+00   0.00000000000000E+00   0.00000000000000E+00   0.00000000000000E+00
      0.00000000000000E+00   4.26323659567917E-17
      2.85000000000000E-01
      0.00000000000000E+00   0.00000000000000E+00   0.00000000000000E+00   0.00000000000000E+00  -1.46458984803341E-13
     -5.14814656160425E-12  -5.29460554640759E-12  -1.46771879440509E-17   1.14000000000000E-01   1.14000000000000E-01
      0.00000000000000E+00   0.00000000000000E+00   0.00000000000000E+00   0.00000000000000E+00   0.00000000000000E+00
     -3.32520475634786E-17   2.00000000000000E-02   2.00000000000000E-02   0.00000000000000E+00   0.00000000000000E+00
      5.29378791309732E-12   8.17633310264494E-16   5.29460554640758E-12   6.86385348589111E-18   2.50000000000000E-01
      2.50000000000000E-01   0.00000000000000E+00   0.00000000000000E+00   0.00000000000000E+00   0.00000000000000E+00
      0.00000000000000E+00   4.10653820216384E-17
      3.00000000000000E-01
      0.00000000000000E+00   0.00000000000000E+00   0.00000000000000E+00   0.00000000000000E+00  -1.47571324288776E-13
     -5.02202625579824E-12  -5.16959758008702E-12  -1.47416452994807E-17   1.20000000000000E-01   1.20000000000000E-01
      0.00000000000000E+00   0.00000000000000E+00   0.00000000000000E+00   0.00000000000000E+00   0.00000000000000E+00
     -3.15400676374659E-17   2.00000000000000E-02   2.00000000000000E-02   0.00000000000000E+00   0.00000000000000E+00
      5.16879403434391E-12   8.03545743105010E-16   5.16959758008702E-12   6.78299314019047E-18   2.50000000000000E-01
      2.50000000000000E-01   0.00000000000000E+00   0.00000000000000E+00   0.00000000000000E+00   0.00000000000000E+00
      0.00000000000000E+00   3.94987197967562E-17
      3.15000000000000E-01
      0.00000000000000E+00   0.00000000000000E+00   0.00000000000000E+00   0.00000000000000E+00  -1.48685107548011E-13
     -4.91096797418948E-12  -5.05965308173749E-12  -1.48060882670682E-17   1.26000000000000E-01   1.26000000000000E-01
      0.00000000000000E+00   0.00000000000000E+00   0.00000000000000E+00   0.00000000000000E+00   0.00000000000000E+00
     -2.98277494980814E-17   2.00000000000000E-02   2.00000000000000E-02   0.00000000000000E+00   0.00000000000000E+00
      5.05886351657564E-12   7.89565161840210E-16   5.05965308173748E-12   6.70144085019449E-18   2.50000000000000E-01
      2.50000000000000E-01   0.00000000000000E+00   0.00000000000000E+00   0.00000000000000E+00   0.00000000000000E+00
      0.00000000000000E+00   3.79323969149551E-17
      3.30000000000000E-01
      0.00000000000000E+00   0.00000000000000E+00   0.00000000000000E+00   0.00000000000000E+00  -1.49800305123124E-13
     -4.81519428912198E-12  -4.96499459424511E-12  -1.48705171147504E-17   1.32000000000000E-01   1.32000000000000E-01
      0.00000000000000E+00   0.00000000000000E+00   0.00000000000000E+00   0.00000000000000E+00   0.00000000000000E+00
     -2.81150739659363E-17   2.00000000000000E-02   2.00000000000000E-02   0.00000000000000E+00   0.00000000000000E+00
      4.96421890355335E-12   7.75690691752834E-16   4.96499459424510E-12   6.61915878507937E-18   2.50000000000000E-01
      2.50000000000000E-01   0.00000000000000E+00   0.00000000000000E+00   0.00000000000000E+00   0.00000000000000E+00
      0.00000000000000E+00   3.63664322956074E-17
      3.45000000000000E-01
      0.00000000000000E+00   0.00000000000000E+00   0.00000000000000E+00   0.00000000000000E+00  -1.50916890486985E-13
     -4.73504496009044E-12  -4.88596185057742E-12  -1.49349320916390E-17   1.38000000000000E-01   1.38000000000000E-01
      0.00000000000000E+00   0.00000000000000E+00   0.00000000000000E+00   0.00000000000000E+00   0.00000000000000E+00
     -2.64020203749026E-17   2.00000000000000E-02   2.00000000000000E-02   0.00000000000000E+00   0.00000000000000E+00
      4.88519993047968E-12   7.61920097736225E-16   4.88596185057742E-12   6.53610619703833E-18   2.50000000000000E-01
      2.50000000000000E-01   0.00000000000000E+00   0.00000000000000E+00   0.00000000000000E+00   0.00000000000000E+00
      0.00000000000000E+00   3.48008462695033E-17
      3.60000000000000E-01
      0.00000000000000E+00   0.00000000000000E+00   0.00000000000000E+00   0.00000000000000E+00  -1.52034840686948E-13
     -4.67098777907880E-12  -4.82302261976575E-12  -1.49993334272472E-17   1.44000000000000E-01   1.44000000000000E-01
      0.00000000000000E+00   0.00000000000000E+00   0.00000000000000E+00   0.00000000000000E+00   0.00000000000000E+00
     -2.46885664193405E-17   2.00000000000000E-02   2.00000000000000E-02   0.00000000000000E+00   0.00000000000000E+00
      4.82227436984825E-12   7.48249917501055E-16   4.82302261976575E-12   6.45223912910335E-18   2.50000000000000E-01
      2.50000000000000E-01   0.00000000000000E+00   0.00000000000000E+00   0.00000000000000E+00   0.00000000000000E+00
      0.00000000000000E+00   3.32356607174844E-17
      3.75000000000000E-01
      0.00000000000000E+00   0.00000000000000E+00   0.00000000000000E+00   0.00000000000000E+00  -1.53154124255339E-13
     -4.62363096071592E-12  -4.77678508497126E-12  -1.50637213305674E-17   1.50000000000000E-01   1.50000000000000E-01
      0.00000000000000E+00   0.00000000000000E+00   0.00000000000000E+00   0.00000000000000E+00   0.00000000000000E+00
     -2.29746879836594E-17   2.00000000000000E-02   2.00000000000000E-02   0.00000000000000E+00   0.00000000000000E+00
      4.77605040945301E-12   7.34675518251880E-16   4.77678508497126E-12   6.36751008978462E-18   2.50000000000000E-01
      2.50000000000000E-01   0.00000000000000E+00   0.00000000000000E+00   0.00000000000000E+00   0.00000000000000E+00
      0.00000000000000E+00   3.16708992244421E-17
      3.90000000000000E-01
      0.00000000000000E+00   0.00000000000000E+00   0.00000000000000E+00   0.00000000000000E+00  -1.54274713414668E-13
     -4.59373720100851E-12  -4.74801191442317E-12  -1.51280959889845E-17   1.56000000000000E-01   1.56000000000000E-01
      0.00000000000000E+00   0.00000000000000E+00   0.00000000000000E+00   0.00000000000000E+00   0.00000000000000E+00
     -2.12603589520911E-17   2.00000000000000E-02   2.00000000000000E-02   0.00000000000000E+00   0.00000000000000E+00
      4.74729072334028E-12   7.21191082894614E-16   4.74801191442317E-12   6.28186769062097E-18   2.50000000000000E-01
      2.50000000000000E-01   0.00000000000000E+00   0.00000000000000E+00   0.00000000000000E+00   0.00000000000000E+00
      0.00000000000000E+00   3.01065872504547E-17
      4.05000000000000E-01
      0.00000000000000E+00   0.00000000000000E+00   0.00000000000000E+00   0.00000000000000E+00  -1.55396578711523E-13
     -4.58223954004449E-12  -4.73763611875601E-12  -1.51924575670058E-17   1.62000000000000E-01   1.62000000000000E-01
      0.00000000000000E+00   0.00000000000000E+00   0.00000000000000E+00   0.00000000000000E+00   0.00000000000000E+00
     -1.95455509963083E-17   2.00000000000000E-02   2.00000000000000E-02   0.00000000000000E+00   0.00000000000000E+00
      4.73692832923151E-12   7.07789524497027E-16   4.73763611875601E-12   6.19525624228172E-18   2.50000000000000E-01
      2.50000000000000E-01   0.00000000000000E+00   0.00000000000000E+00   0.00000000000000E+00   0.00000000000000E+00
      0.00000000000000E+00   2.85427523210325E-17
      4.20000000000000E-01
      0.00000000000000E+00   0.00000000000000E+00   0.00000000000000E+00   0.00000000000000E+00  -1.56519686602311E-13
     -4.59025917429533E-12  -4.74677886089764E-12  -1.52568062047850E-17   1.68000000000000E-01   1.68000000000000E-01
      0.00000000000000E+00   0.00000000000000E+00   0.00000000000000E+00   0.00000000000000E+00   0.00000000000000E+00
     -1.78302333382390E-17   2.00000000000000E-02   2.00000000000000E-02   0.00000000000000E+00   0.00000000000000E+00
      4.74608439856472E-12   6.94462332916655E-16   4.74677886089763E-12   6.10761530435961E-18   2.50000000000000E-01
      2.50000000000000E-01   0.00000000000000E+00   0.00000000000000E+00   0.00000000000000E+00   0.00000000000000E+00
      0.00000000000000E+00   2.69794242386645E-17
      4.35000000000000E-01
      0.00000000000000E+00   0.00000000000000E+00   0.00000000000000E+00   0.00000000000000E+00  -1.57644023085487E-13
     -4.61912537303436E-12  -4.77676939611985E-12  -1.53211420164179E-17   1.74000000000000E-01   1.74000000000000E-01
      0.00000000000000E+00   0.00000000000000E+00   0.00000000000000E+00   0.00000000000000E+00   0.00000000000000E+00
     -1.61143724851246E-17   2.00000000000000E-02   2.00000000000000E-02   0.00000000000000E+00   0.00000000000000E+00
      4.77608819676989E-12   6.81199349955148E-16   4.77676939611985E-12   6.01887918344088E-18   2.50000000000000E-01
      2.50000000000000E-01   0.00000000000000E+00   0.00000000000000E+00   0.00000000000000E+00   0.00000000000000E+00
      0.00000000000000E+00   2.54166353181016E-17
      4.50000000000000E-01
      0.00000000000000E+00   0.00000000000000E+00   0.00000000000000E+00   0.00000000000000E+00  -1.58769544355459E-13
     -4.67039766101039E-12  -4.82916720536585E-12  -1.53854650879814E-17   1.80000000000000E-01   1.80000000000000E-01
      0.00000000000000E+00   0.00000000000000E+00   0.00000000000000E+00   0.00000000000000E+00   0.00000000000000E+00
     -1.43979319335274E-17   2.00000000000000E-02   2.00000000000000E-02   0.00000000000000E+00   0.00000000000000E+00
      4.82849921689666E-12   6.67988469193525E-16   4.82916720536585E-12   5.92897637342945E-18   2.50000000000000E-01
      2.50000000000000E-01   0.00000000000000E+00   0.00000000000000E+00   0.00000000000000E+00   0.00000000000000E+00
      0.00000000000000E+00   2.38544206480794E-17
      4.65000000000000E-01
      0.00000000000000E+00   0.00000000000000E+00   0.00000000000000E+00   0.00000000000000E+00  -1.59896215439553E-13
     -4.74589043591120E-12  -4.90578665135076E-12  -1.54497754752871E-17   1.86000000000000E-01   1.86000000000000E-01
      0.00000000000000E+00   0.00000000000000E+00   0.00000000000000E+00   0.00000000000000E+00   0.00000000000000E+00
     -1.26808718386197E-17   2.00000000000000E-02   2.00000000000000E-02   0.00000000000000E+00   0.00000000000000E+00
      4.90513183609615E-12   6.54815254608079E-16   4.90578665135076E-12   5.83782893143255E-18   2.50000000000000E-01
      2.50000000000000E-01   0.00000000000000E+00   0.00000000000000E+00   0.00000000000000E+00   0.00000000000000E+00
      0.00000000000000E+00   2.22928183824742E-17
      4.80000000000000E-01
      0.00000000000000E+00   0.00000000000000E+00   0.00000000000000E+00   0.00000000000000E+00  -1.61024005499308E-13
     -4.84770019434654E-12  -5.00872419984585E-12  -1.55140732013130E-17   1.92000000000000E-01   1.92000000000000E-01
      0.00000000000000E+00   0.00000000000000E+00   0.00000000000000E+00   0.00000000000000E+00   0.00000000000000E+00
     -1.09631486446769E-17   2.00000000000000E-02   2.00000000000000E-02   0.00000000000000E+00   0.00000000000000E+00
      5.00808253738154E-12   6.41662464310225E-16   5.00872419984585E-12   5.74535178178253E-18   2.50000000000000E-01
      2.50000000000000E-01   0.00000000000000E+00   0.00000000000000E+00   0.00000000000000E+00   0.00000000000000E+00
      0.00000000000000E+00   2.07318700642074E-17
      4.95000000000000E-01
      0.00000000000000E+00   0.00000000000000E+00   0.00000000000000E+00   0.00000000000000E+00  -1.62152882600996E-13
     -4.97823554409472E-12  -5.14038842669571E-12  -1.55783582532777E-17   1.98000000000000E-01   1.98000000000000E-01
      0.00000000000000E+00   0.00000000000000E+00   0.00000000000000E+00   0.00000000000000E+00   0.00000000000000E+00
     -9.24471467224729E-18   2.00000000000000E-02   2.00000000000000E-02   0.00000000000000E+00   0.00000000000000E+00
      5.13975991722930E-12   6.28509466408707E-16   5.14038842669571E-12   5.65145193997157E-18   2.50000000000000E-01
      2.50000000000000E-01   0.00000000000000E+00   0.00000000000000E+00   0.00000000000000E+00   0.00000000000000E+00
      0.00000000000000E+00   1.91716209855534E-17
      5.10000000000000E-01
      0.00000000000000E+00   0.00000000000000E+00   0.00000000000000E+00   0.00000000000000E+00  -1.63282820861275E-13
     -5.14025018316965E-12  -5.30353300403093E-12  -1.56426305793116E-17   2.04000000000000E-01   2.04000000000000E-01
      0.00000000000000E+00   0.00000000000000E+00   0.00000000000000E+00   0.00000000000000E+00   0.00000000000000E+00
     -7.52551765698247E-18   2.00000000000000E-02   2.00000000000000E-02   0.00000000000000E+00   0.00000000000000E+00
      5.30291767250307E-12   6.15331527865890E-16   5.30353300403093E-12   5.55602764741061E-18   2.50000000000000E-01
      2.50000000000000E-01   0.00000000000000E+00   0.00000000000000E+00   0.00000000000000E+00   0.00000000000000E+00
      0.00000000000000E+00   1.76121205888834E-17
      5.25000000000000E-01
      0.00000000000000E+00   0.00000000000000E+00   0.00000000000000E+00   0.00000000000000E+00  -1.64413760624990E-13
     -5.33687902785357E-12  -5.50129278847856E-12  -1.57068900846792E-17   2.10000000000000E-01   2.10000000000000E-01
      0.00000000000000E+00   0.00000000000000E+00   0.00000000000000E+00   0.00000000000000E+00   0.00000000000000E+00
     -5.80550023458578E-18   2.00000000000000E-02   2.00000000000000E-02   0.00000000000000E+00   0.00000000000000E+00
      5.50069068952590E-12   6.02098952656079E-16   5.50129278847856E-12   5.45896740699084E-18   2.50000000000000E-01
      2.50000000000000E-01   0.00000000000000E+00   0.00000000000000E+00   0.00000000000000E+00   0.00000000000000E+00
      0.00000000000000E+00   1.60534229122742E-17
      5.40000000000000E-01
      0.00000000000000E+00   0.00000000000000E+00   0.00000000000000E+00   0.00000000000000E+00  -1.65545676404983E-13
     -5.57167767216504E-12  -5.73722334857002E-12  -1.57711366274976E-17   2.16000000000000E-01   2.16000000000000E-01
      0.00000000000000E+00   0.00000000000000E+00   0.00000000000000E+00   0.00000000000000E+00   0.00000000000000E+00
     -4.08459936576427E-18   2.00000000000000E-02   2.00000000000000E-02   0.00000000000000E+00   0.00000000000000E+00
      5.73663457252621E-12   5.88776043807221E-16   5.73722334857002E-12   5.36014890842856E-18   2.50000000000000E-01
      2.50000000000000E-01   0.00000000000000E+00   0.00000000000000E+00   0.00000000000000E+00   0.00000000000000E+00
      0.00000000000000E+00   1.44955870848333E-17
      5.55000000000000E-01
      0.00000000000000E+00   0.00000000000000E+00   0.00000000000000E+00   0.00000000000000E+00  -1.66678511169687E-13