DF-ISE text

Info {
  version   = 1.0
  type      = xyplot
  datasets  = [
    "time"
    "source OuterVoltage" "source InnerVoltage" "source QuasiFermiPotential" "source DisplacementCurrent" "source eCurrent"
    "source hCurrent" "source TotalCurrent" "source Charge" "topGate OuterVoltage" "topGate InnerVoltage"
    "topGate QuasiFermiPotential" "topGate DisplacementCurrent" "topGate eCurrent" "topGate hCurrent" "topGate TotalCurrent"
    "topGate Charge" "drain OuterVoltage" "drain InnerVoltage" "drain QuasiFermiPotential" "drain DisplacementCurrent"
    "drain eCurrent" "drain hCurrent" "drain TotalCurrent" "drain Charge" "bottomGate OuterVoltage"
    "bottomGate InnerVoltage" "bottomGate QuasiFermiPotential" "bottomGate DisplacementCurrent" "bottomGate eCurrent" "bottomGate hCurrent"
    "bottomGate TotalCurrent" "bottomGate Charge" ]
  functions = [
    Time
    OuterVoltage InnerVoltage QuasiFermiPotential DisplacementCurrent eCurrent
    hCurrent TotalCurrent Charge OuterVoltage InnerVoltage
    QuasiFermiPotential DisplacementCurrent eCurrent hCurrent TotalCurrent
    Charge OuterVoltage InnerVoltage QuasiFermiPotential DisplacementCurrent
    eCurrent hCurrent TotalCurrent Charge OuterVoltage
    InnerVoltage QuasiFermiPotential DisplacementCurrent eCurrent hCurrent
    TotalCurrent Charge ]
}

Data {
      1.50000000000000E-02
      0.00000000000000E+00   0.00000000000000E+00   0.00000000000000E+00   0.00000000000000E+00  -2.50427238001923E-13
     -3.59941478281675E-11  -3.62445750661694E-11  -1.40533654311363E-17   6.00000000000000E-03   6.00000000000000E-03
      0.00000000000000E+00   0.00000000000000E+00   0.00000000000000E+00   0.00000000000000E+00   0.00000000000000E+00
     -7.84025360850177E-17   1.30000000000000E-01   1.30000000000000E-01   0.00000000000000E+00   0.00000000000000E+00
      3.62416742810900E-11   2.90078507938847E-15   3.62445750661694E-11   1.02029962220450E-17   3.00000000000000E-01
      3.00000000000000E-01   0.00000000000000E+00   0.00000000000000E+00   0.00000000000000E+00   0.00000000000000E+00
      0.00000000000000E+00   8.22529052941090E-17
      3.00000000000000E-02
      0.00000000000000E+00   0.00000000000000E+00   0.00000000000000E+00   0.00000000000000E+00  -2.52451029531423E-13
     -3.43574679912620E-11  -3.46099190207934E-11  -1.41179811304257E-17   1.20000000000000E-02   1.20000000000000E-02
      0.00000000000000E+00   0.00000000000000E+00   0.00000000000000E+00   0.00000000000000E+00   0.00000000000000E+00
     -7.66971465382794E-17   1.30000000000000E-01   1.30000000000000E-01   0.00000000000000E+00   0.00000000000000E+00
      3.46070479363172E-11   2.87108447619819E-15   3.46099190207934E-11   1.01355142860451E-17   3.00000000000000E-01
      3.00000000000000E-01   0.00000000000000E+00   0.00000000000000E+00   0.00000000000000E+00   0.00000000000000E+00
      0.00000000000000E+00   8.06796133826600E-17
      4.50000000000000E-02
      0.00000000000000E+00   0.00000000000000E+00   0.00000000000000E+00   0.00000000000000E+00  -2.54477920200657E-13
     -3.28282847144859E-11  -3.30827626346865E-11  -1.41825791771490E-17   1.80000000000000E-02   1.80000000000000E-02
      0.00000000000000E+00   0.00000000000000E+00   0.00000000000000E+00   0.00000000000000E+00   0.00000000000000E+00
     -7.49917116124845E-17   1.30000000000000E-01   1.30000000000000E-01   0.00000000000000E+00   0.00000000000000E+00
      3.30799214501347E-11   2.84118455184168E-15   3.30827626346865E-11   1.00679238720753E-17   3.00000000000000E-01
      3.00000000000000E-01   0.00000000000000E+00   0.00000000000000E+00   0.00000000000000E+00   0.00000000000000E+00
      0.00000000000000E+00   7.91063669175581E-17
      6.00000000000000E-02
      0.00000000000000E+00   0.00000000000000E+00   0.00000000000000E+00   0.00000000000000E+00  -2.56507868915792E-13
     -3.13975370536764E-11  -3.16540449225922E-11  -1.42471600276619E-17   2.40000000000000E-02   2.40000000000000E-02
      0.00000000000000E+00   0.00000000000000E+00   0.00000000000000E+00   0.00000000000000E+00   0.00000000000000E+00
     -7.32862292176801E-17   1.30000000000000E-01   1.30000000000000E-01   0.00000000000000E+00   0.00000000000000E+00
      3.16512338453811E-11   2.81107721102532E-15   3.16540449225921E-11   1.00002212517348E-17   3.00000000000000E-01
      3.00000000000000E-01   0.00000000000000E+00   0.00000000000000E+00   0.00000000000000E+00   0.00000000000000E+00
      0.00000000000000E+00   7.75331679936073E-17
      7.50000000000000E-02
      0.00000000000000E+00   0.00000000000000E+00   0.00000000000000E+00   0.00000000000000E+00  -2.58540834045457E-13
     -3.00571643175324E-11  -3.03157051515779E-11  -1.43117241245529E-17   3.00000000000000E-02   3.00000000000000E-02
      0.00000000000000E+00   0.00000000000000E+00   0.00000000000000E+00   0.00000000000000E+00   0.00000000000000E+00
     -7.15806971988033E-17   1.30000000000000E-01   1.30000000000000E-01   0.00000000000000E+00   0.00000000000000E+00
      3.03129243928902E-11   2.78075868765198E-15   3.03157051515779E-11   9.93240255234967E-18   3.00000000000000E-01
      3.00000000000000E-01   0.00000000000000E+00   0.00000000000000E+00   0.00000000000000E+00   0.00000000000000E+00
      0.00000000000000E+00   7.59600187710065E-17
      9.00000000000000E-02
      0.00000000000000E+00   0.00000000000000E+00   0.00000000000000E+00   0.00000000000000E+00  -2.60576773605187E-13
     -2.88000056334080E-11  -2.90605824070132E-11  -1.43762718970979E-17   3.60000000000000E-02   3.60000000000000E-02
      0.00000000000000E+00   0.00000000000000E+00   0.00000000000000E+00   0.00000000000000E+00   0.00000000000000E+00
     -6.98751133322650E-17   1.30000000000000E-01   1.30000000000000E-01   0.00000000000000E+00   0.00000000000000E+00
      2.90578321775509E-11   2.75022946227040E-15   2.90605824070131E-11   9.86446375059787E-18   3.00000000000000E-01
      3.00000000000000E-01   0.00000000000000E+00   0.00000000000000E+00   0.00000000000000E+00   0.00000000000000E+00
      0.00000000000000E+00   7.43869214787651E-17
      1.05000000000000E-01
      0.00000000000000E+00   0.00000000000000E+00   0.00000000000000E+00   0.00000000000000E+00  -2.62615645298649E-13
     -2.76197081115608E-11  -2.78823237568595E-11  -1.44408037616970E-17   4.20000000000000E-02   4.20000000000000E-02
      0.00000000000000E+00   0.00000000000000E+00   0.00000000000000E+00   0.00000000000000E+00   0.00000000000000E+00
     -6.81694753223689E-17   1.30000000000000E-01   1.30000000000000E-01   0.00000000000000E+00   0.00000000000000E+00
      2.78796042627550E-11   2.71949410449511E-15   2.78823237568595E-11   9.79640066578403E-18   3.00000000000000E-01
      3.00000000000000E-01   0.00000000000000E+00   0.00000000000000E+00   0.00000000000000E+00   0.00000000000000E+00
      0.00000000000000E+00   7.28138784182818E-17
      1.20000000000000E-01
      0.00000000000000E+00   0.00000000000000E+00   0.00000000000000E+00   0.00000000000000E+00  -2.64657406637680E-13
     -2.65106432130408E-11  -2.67753006196784E-11  -1.45053201222948E-17   4.80000000000000E-02   4.80000000000000E-02
      0.00000000000000E+00   0.00000000000000E+00   0.00000000000000E+00   0.00000000000000E+00   0.00000000000000E+00
     -6.64637807975472E-17   1.30000000000000E-01   1.30000000000000E-01   0.00000000000000E+00   0.00000000000000E+00
      2.67726120586298E-11   2.68856104863551E-15   2.67753006196785E-11   9.72820895274034E-18   3.00000000000000E-01
      3.00000000000000E-01   0.00000000000000E+00   0.00000000000000E+00   0.00000000000000E+00   0.00000000000000E+00
      0.00000000000000E+00   7.12408919671016E-17
      1.35000000000000E-01
      0.00000000000000E+00   0.00000000000000E+00   0.00000000000000E+00   0.00000000000000E+00  -2.66702015036606E-13
     -2.54678309292424E-11  -2.57345329442790E-11  -1.45698213707845E-17   5.40000000000000E-02   5.40000000000000E-02
      0.00000000000000E+00   0.00000000000000E+00   0.00000000000000E+00   0.00000000000000E+00   0.00000000000000E+00
     -6.47580273064005E-17   1.30000000000000E-01   1.30000000000000E-01   0.00000000000000E+00   0.00000000000000E+00
      2.57318755019718E-11   2.65744230713239E-15   2.57345329442789E-11   9.65988409432249E-18   3.00000000000000E-01
      3.00000000000000E-01   0.00000000000000E+00   0.00000000000000E+00   0.00000000000000E+00   0.00000000000000E+00
      0.00000000000000E+00   6.96679645828625E-17
      1.50000000000000E-01
      0.00000000000000E+00   0.00000000000000E+00   0.00000000000000E+00   0.00000000000000E+00  -2.68749427835197E-13
     -2.44868713837600E-11  -2.47556208115952E-11  -1.46343078873970E-17   6.00000000000000E-02   6.00000000000000E-02
      0.00000000000000E+00   0.00000000000000E+00   0.00000000000000E+00   0.00000000000000E+00   0.00000000000000E+00
     -6.30522123135243E-17   1.30000000000000E-01   1.30000000000000E-01   0.00000000000000E+00   0.00000000000000E+00
      2.47529946584688E-11   2.62615312641925E-15   2.47556208115952E-11   9.59142139346941E-18   3.00000000000000E-01
      3.00000000000000E-01   0.00000000000000E+00   0.00000000000000E+00   0.00000000000000E+00   0.00000000000000E+00
      0.00000000000000E+00   6.80950988074519E-17
      1.65000000000000E-01
      0.00000000000000E+00   0.00000000000000E+00   0.00000000000000E+00   0.00000000000000E+00  -2.70799602288453E-13
     -2.35638834702942E-11  -2.38346830725827E-11  -1.46987800410736E-17   6.60000000000000E-02   6.60000000000000E-02
      0.00000000000000E+00   0.00000000000000E+00   0.00000000000000E+00   0.00000000000000E+00   0.00000000000000E+00
     -6.13463331951031E-17   1.30000000000000E-01   1.30000000000000E-01   0.00000000000000E+00   0.00000000000000E+00
      2.38320883609855E-11   2.59471159712012E-15   2.38346830725826E-11   9.52281596479053E-18   3.00000000000000E-01
      3.00000000000000E-01   0.00000000000000E+00   0.00000000000000E+00   0.00000000000000E+00   0.00000000000000E+00
      0.00000000000000E+00   6.65222972713862E-17
      1.80000000000000E-01
      0.00000000000000E+00   0.00000000000000E+00   0.00000000000000E+00   0.00000000000000E+00  -2.72852495717620E-13
     -2.26954501445362E-11  -2.29683026402538E-11  -1.47632381898255E-17   7.20000000000000E-02   7.20000000000000E-02
      0.00000000000000E+00   0.00000000000000E+00   0.00000000000000E+00   0.00000000000000E+00   0.00000000000000E+00
     -5.96403872342512E-17   1.30000000000000E-01   1.30000000000000E-01   0.00000000000000E+00   0.00000000000000E+00
      2.29657395020281E-11   2.56313822570200E-15   2.29683026402538E-11   9.45406272564152E-18   3.00000000000000E-01
      3.00000000000000E-01   0.00000000000000E+00   0.00000000000000E+00   0.00000000000000E+00   0.00000000000000E+00
      0.00000000000000E+00   6.49495626984351E-17
      1.95000000000000E-01
      0.00000000000000E+00   0.00000000000000E+00   0.00000000000000E+00   0.00000000000000E+00  -2.74908065492415E-13
     -2.18785699936854E-11  -2.21534780591778E-11  -1.48276826810776E-17   7.80000000000000E-02   7.80000000000000E-02
      0.00000000000000E+00   0.00000000000000E+00   0.00000000000000E+00   0.00000000000000E+00   0.00000000000000E+00
     -5.79343716160779E-17   1.30000000000000E-01   1.30000000000000E-01   0.00000000000000E+00   0.00000000000000E+00
      2.21509466036968E-11   2.53145548100522E-15   2.21534780591778E-11   9.38515638664457E-18   3.00000000000000E-01
      3.00000000000000E-01   0.00000000000000E+00   0.00000000000000E+00   0.00000000000000E+00   0.00000000000000E+00
      0.00000000000000E+00   6.33768979105109E-17
      2.10000000000000E-01
      0.00000000000000E+00   0.00000000000000E+00   0.00000000000000E+00   0.00000000000000E+00  -2.76966268934763E-13
     -2.11106147148608E-11  -2.13875809837956E-11  -1.48921138519995E-17   8.40000000000000E-02   8.40000000000000E-02
      0.00000000000000E+00   0.00000000000000E+00   0.00000000000000E+00   0.00000000000000E+00   0.00000000000000E+00
     -5.62282834224518E-17   1.30000000000000E-01   1.30000000000000E-01   0.00000000000000E+00   0.00000000000000E+00
      2.13850812964704E-11   2.49968732516549E-15   2.13875809837956E-11   9.31609144160496E-18   3.00000000000000E-01
      3.00000000000000E-01   0.00000000000000E+00   0.00000000000000E+00   0.00000000000000E+00   0.00000000000000E+00
      0.00000000000000E+00   6.18043058328464E-17
      2.25000000000000E-01
      0.00000000000000E+00   0.00000000000000E+00   0.00000000000000E+00   0.00000000000000E+00  -2.79027063313178E-13
     -2.03892921434298E-11  -2.06683192067430E-11  -1.49565320298215E-17   9.00000000000000E-02   9.00000000000000E-02
      0.00000000000000E+00   0.00000000000000E+00   0.00000000000000E+00   0.00000000000000E+00   0.00000000000000E+00
     -5.45221196264351E-17   1.30000000000000E-01   1.30000000000000E-01   0.00000000000000E+00   0.00000000000000E+00
      2.06658513480006E-11   2.46785874236357E-15   2.06683192067430E-11   9.24686215676992E-18   3.00000000000000E-01
      3.00000000000000E-01   0.00000000000000E+00   0.00000000000000E+00   0.00000000000000E+00   0.00000000000000E+00
      0.00000000000000E+00   6.02317894994867E-17
      2.40000000000000E-01
      0.00000000000000E+00   0.00000000000000E+00   0.00000000000000E+00   0.00000000000000E+00  -2.81090406084974E-13
     -1.97126144843245E-11  -1.99937048904094E-11  -1.50209375321387E-17   9.60000000000000E-02   9.60000000000000E-02
      0.00000000000000E+00   0.00000000000000E+00   0.00000000000000E+00   0.00000000000000E+00   0.00000000000000E+00
     -5.28158770863565E-17   1.30000000000000E-01   1.30000000000000E-01   0.00000000000000E+00   0.00000000000000E+00
      1.99912688951335E-11   2.43599527595796E-15   1.99937048904094E-11   9.17746255937027E-18   3.00000000000000E-01
      3.00000000000000E-01   0.00000000000000E+00   0.00000000000000E+00   0.00000000000000E+00   0.00000000000000E+00
      0.00000000000000E+00   5.86593520591249E-17
      2.55000000000000E-01
      0.00000000000000E+00   0.00000000000000E+00   0.00000000000000E+00   0.00000000000000E+00  -2.83156254542358E-13
     -1.90788714138611E-11  -1.93620276684035E-11  -1.50853306672004E-17   1.02000000000000E-01   1.02000000000000E-01
      0.00000000000000E+00   0.00000000000000E+00   0.00000000000000E+00   0.00000000000000E+00   0.00000000000000E+00
     -5.11095525394894E-17   1.30000000000000E-01   1.30000000000000E-01   0.00000000000000E+00   0.00000000000000E+00
      1.93596235458178E-11   2.40412258563715E-15   1.93620276684034E-11   9.10788642537790E-18   3.00000000000000E-01
      3.00000000000000E-01   0.00000000000000E+00   0.00000000000000E+00   0.00000000000000E+00   0.00000000000000E+00
      0.00000000000000E+00   5.70869967813118E-17
      2.70000000000000E-01
      0.00000000000000E+00   0.00000000000000E+00   0.00000000000000E+00   0.00000000000000E+00  -2.85224565801872E-13
     -1.84866077364045E-11  -1.87718323022063E-11  -1.51497117341879E-17   1.08000000000000E-01   1.08000000000000E-01
      0.00000000000000E+00   0.00000000000000E+00   0.00000000000000E+00   0.00000000000000E+00   0.00000000000000E+00
     -4.94031425952934E-17   1.30000000000000E-01   1.30000000000000E-01   0.00000000000000E+00   0.00000000000000E+00
      1.87694600361709E-11   2.37226603539779E-15   1.87718323022063E-11   9.03812726640559E-18   3.00000000000000E-01
      3.00000000000000E-01   0.00000000000000E+00   0.00000000000000E+00   0.00000000000000E+00   0.00000000000000E+00
      0.00000000000000E+00   5.55147270630757E-17
      2.85000000000000E-01
      0.00000000000000E+00   0.00000000000000E+00   0.00000000000000E+00   0.00000000000000E+00  -2.87295297068989E-13
     -1.79346052993640E-11  -1.82219005964330E-11  -1.52140810234786E-17   1.14000000000000E-01   1.14000000000000E-01
      0.00000000000000E+00   0.00000000000000E+00   0.00000000000000E+00   0.00000000000000E+00   0.00000000000000E+00
     -4.76966437281790E-17   1.30000000000000E-01   1.30000000000000E-01   0.00000000000000E+00   0.00000000000000E+00
      1.82195601461128E-11   2.34045032021368E-15   1.82219005964330E-11   8.96817831566616E-18   3.00000000000000E-01
      3.00000000000000E-01   0.00000000000000E+00   0.00000000000000E+00   0.00000000000000E+00   0.00000000000000E+00
      0.00000000000000E+00   5.39425464359915E-17
      3.00000000000000E-01
      0.00000000000000E+00   0.00000000000000E+00   0.00000000000000E+00   0.00000000000000E+00  -2.89368405141867E-13
     -1.74218688913634E-11  -1.77112372965053E-11  -1.52784388168975E-17   1.20000000000000E-01   1.20000000000000E-01
      0.00000000000000E+00   0.00000000000000E+00   0.00000000000000E+00   0.00000000000000E+00   0.00000000000000E+00
     -4.59900522697440E-17   1.30000000000000E-01   1.30000000000000E-01   0.00000000000000E+00   0.00000000000000E+00
      1.77089285973663E-11   2.30869913897168E-15   1.77112372965053E-11   8.89803251289893E-18   3.00000000000000E-01
      3.00000000000000E-01   0.00000000000000E+00   0.00000000000000E+00   0.00000000000000E+00   0.00000000000000E+00
      0.00000000000000E+00   5.23704585737425E-17
      3.15000000000000E-01
      0.00000000000000E+00   0.00000000000000E+00   0.00000000000000E+00   0.00000000000000E+00  -2.91443846523718E-13
     -1.69476158717761E-11  -1.72390597182998E-11  -1.53427853879560E-17   1.26000000000000E-01   1.26000000000000E-01
      0.00000000000000E+00   0.00000000000000E+00   0.00000000000000E+00   0.00000000000000E+00   0.00000000000000E+00
     -4.42833644004281E-17   1.30000000000000E-01   1.30000000000000E-01   0.00000000000000E+00   0.00000000000000E+00
      1.72367826833801E-11   2.27703491973420E-15   1.72390597182998E-11   8.82768248816092E-18   3.00000000000000E-01
      3.00000000000000E-01   0.00000000000000E+00   0.00000000000000E+00   0.00000000000000E+00   0.00000000000000E+00
      0.00000000000000E+00   5.07984673002232E-17
      3.30000000000000E-01
      0.00000000000000E+00   0.00000000000000E+00   0.00000000000000E+00   0.00000000000000E+00  -2.93521577438286E-13
     -1.65112693049601E-11  -1.68047908823984E-11  -1.54071210020785E-17   1.32000000000000E-01   1.32000000000000E-01
      0.00000000000000E+00   0.00000000000000E+00   0.00000000000000E+00   0.00000000000000E+00   0.00000000000000E+00
     -4.25765761405269E-17   1.30000000000000E-01   1.30000000000000E-01   0.00000000000000E+00   0.00000000000000E+00
      1.68025454037982E-11   2.24547860019235E-15   1.68047908823984E-11   8.75712054436786E-18   3.00000000000000E-01
      3.00000000000000E-01   0.00000000000000E+00   0.00000000000000E+00   0.00000000000000E+00   0.00000000000000E+00
      0.00000000000000E+00   4.92265765982376E-17
      3.45000000000000E-01
      0.00000000000000E+00   0.00000000000000E+00   0.00000000000000E+00   0.00000000000000E+00  -2.95601553355782E-13
     -1.61124543991421E-11  -1.64080559524979E-11  -1.54714459168154E-17   1.38000000000000E-01   1.38000000000000E-01
      0.00000000000000E+00   0.00000000000000E+00   0.00000000000000E+00   0.00000000000000E+00   0.00000000000000E+00
     -4.08696833404932E-17   1.30000000000000E-01   1.30000000000000E-01   0.00000000000000E+00   0.00000000000000E+00
      1.64058419030345E-11   2.21404946332821E-15   1.64080559524978E-11   8.68633863845631E-18   3.00000000000000E-01
      3.00000000000000E-01   0.00000000000000E+00   0.00000000000000E+00   0.00000000000000E+00   0.00000000000000E+00
      0.00000000000000E+00   4.76547906188522E-17
      3.60000000000000E-01
      0.00000000000000E+00   0.00000000000000E+00   0.00000000000000E+00   0.00000000000000E+00  -2.97683729392864E-13
     -1.57509980777071E-11  -1.60486818071000E-11  -1.55357603820435E-17   1.44000000000000E-01   1.44000000000000E-01
      0.00000000000000E+00   0.00000000000000E+00   0.00000000000000E+00   0.00000000000000E+00   0.00000000000000E+00
     -3.91626816704535E-17   1.30000000000000E-01   1.30000000000000E-01   0.00000000000000E+00   0.00000000000000E+00
      1.60464990420701E-11   2.18276502985351E-15   1.60486818071000E-11   8.61532836102388E-18   3.00000000000000E-01
      3.00000000000000E-01   0.00000000000000E+00   0.00000000000000E+00   0.00000000000000E+00   0.00000000000000E+00
      0.00000000000000E+00   4.60831136914730E-17
      3.75000000000000E-01
      0.00000000000000E+00   0.00000000000000E+00   0.00000000000000E+00   0.00000000000000E+00  -2.99768059481660E-13
     -1.54269315392576E-11  -1.57266995987393E-11  -1.56000646401535E-17   1.50000000000000E-01   1.50000000000000E-01
      0.00000000000000E+00   0.00000000000000E+00   0.00000000000000E+00   0.00000000000000E+00   0.00000000000000E+00
     -3.74555666088515E-17   1.30000000000000E-01   1.30000000000000E-01   0.00000000000000E+00   0.00000000000000E+00
      1.57245479577375E-11   2.15164100172660E-15   1.57266995987392E-11   8.54408091428640E-18   3.00000000000000E-01
      3.00000000000000E-01   0.00000000000000E+00   0.00000000000000E+00   0.00000000000000E+00   0.00000000000000E+00
      0.00000000000000E+00   4.45115503347186E-17
      3.90000000000000E-01
      0.00000000000000E+00   0.00000000000000E+00   0.00000000000000E+00   0.00000000000000E+00  -3.01854496909139E-13
     -1.51404956918853E-11  -1.54423501887944E-11  -1.56643589262240E-17   1.56000000000000E-01   1.56000000000000E-01
      0.00000000000000E+00   0.00000000000000E+00   0.00000000000000E+00   0.00000000000000E+00   0.00000000000000E+00
     -3.57483334301237E-17   1.30000000000000E-01   1.30000000000000E-01   0.00000000000000E+00   0.00000000000000E+00
      1.54402294975402E-11   2.12069125422649E-15   1.54423501887944E-11   8.47258708817217E-18   3.00000000000000E-01
      3.00000000000000E-01   0.00000000000000E+00   0.00000000000000E+00   0.00000000000000E+00   0.00000000000000E+00
      0.00000000000000E+00   4.29401052681755E-17
      4.05000000000000E-01
      0.00000000000000E+00   0.00000000000000E+00   0.00000000000000E+00   0.00000000000000E+00  -3.03942993546704E-13
     -1.48921493762277E-11  -1.51960923697744E-11  -1.57286434681809E-17   1.62000000000000E-01   1.62000000000000E-01
      0.00000000000000E+00   0.00000000000000E+00   0.00000000000000E+00   0.00000000000000E+00   0.00000000000000E+00
     -3.40409771912998E-17   1.30000000000000E-01   1.30000000000000E-01   0.00000000000000E+00   0.00000000000000E+00
      1.51940024419056E-11   2.08992786888247E-15   1.51960923697744E-11   8.40083723435194E-18   3.00000000000000E-01
      3.00000000000000E-01   0.00000000000000E+00   0.00000000000000E+00   0.00000000000000E+00   0.00000000000000E+00
      0.00000000000000E+00   4.13687834251287E-17
      4.20000000000000E-01
      0.00000000000000E+00   0.00000000000000E+00   0.00000000000000E+00   0.00000000000000E+00  -3.06033499561546E-13
     -1.46825803207122E-11  -1.49886138202737E-11  -1.57929184869435E-17   1.68000000000000E-01   1.68000000000000E-01
      0.00000000000000E+00   0.00000000000000E+00   0.00000000000000E+00   0.00000000000000E+00   0.00000000000000E+00
     -3.23334927174065E-17   1.30000000000000E-01   1.30000000000000E-01   0.00000000000000E+00   0.00000000000000E+00
      1.49865544590733E-11   2.05936120042986E-15   1.49886138202737E-11   8.32882123797839E-18   3.00000000000000E-01
      3.00000000000000E-01   0.00000000000000E+00   0.00000000000000E+00   0.00000000000000E+00   0.00000000000000E+00
      0.00000000000000E+00   3.97975899663716E-17
      4.35000000000000E-01
      0.00000000000000E+00   0.00000000000000E+00   0.00000000000000E+00   0.00000000000000E+00  -3.08125964143009E-13
     -1.45127188005225E-11  -1.48208447646655E-11  -1.58571841965552E-17   1.74000000000000E-01   1.74000000000000E-01
      0.00000000000000E+00   0.00000000000000E+00   0.00000000000000E+00   0.00000000000000E+00   0.00000000000000E+00
     -3.06258745855398E-17   1.30000000000000E-01   1.30000000000000E-01   0.00000000000000E+00   0.00000000000000E+00
      1.48188157646955E-11   2.02899997001245E-15   1.48208447646655E-11   8.25652848688187E-18   3.00000000000000E-01
      3.00000000000000E-01   0.00000000000000E+00   0.00000000000000E+00   0.00000000000000E+00   0.00000000000000E+00
      0.00000000000000E+00   3.82265302952132E-17
      4.50000000000000E-01
      0.00000000000000E+00   0.00000000000000E+00   0.00000000000000E+00   0.00000000000000E+00  -3.10220333388748E-13
     -1.43837539989209E-11  -1.46939743323096E-11  -1.59214408042983E-17   1.80000000000000E-01   1.80000000000000E-01
      0.00000000000000E+00   0.00000000000000E+00   0.00000000000000E+00   0.00000000000000E+00   0.00000000000000E+00
     -2.89181171074531E-17   1.30000000000000E-01   1.30000000000000E-01   0.00000000000000E+00   0.00000000000000E+00
      1.46919754809344E-11   1.99885137520498E-15   1.46939743323096E-11   8.18394783793832E-18   3.00000000000000E-01
      3.00000000000000E-01   0.00000000000000E+00   0.00000000000000E+00   0.00000000000000E+00   0.00000000000000E+00
      0.00000000000000E+00   3.66556100738131E-17
      4.65000000000000E-01
      0.00000000000000E+00   0.00000000000000E+00   0.00000000000000E+00   0.00000000000000E+00  -3.12316551869665E-13
     -1.42971530952791E-11  -1.46094696471488E-11  -1.59856885107929E-17   1.86000000000000E-01   1.86000000000000E-01
      0.00000000000000E+00   0.00000000000000E+00   0.00000000000000E+00   0.00000000000000E+00   0.00000000000000E+00
     -2.72102143104896E-17   1.30000000000000E-01   1.30000000000000E-01   0.00000000000000E+00   0.00000000000000E+00
      1.46075007259392E-11   1.96892120954636E-15   1.46094696471488E-11   8.11106758029050E-18   3.00000000000000E-01
      3.00000000000000E-01   0.00000000000000E+00   0.00000000000000E+00   0.00000000000000E+00   0.00000000000000E+00
      0.00000000000000E+00   3.50848352409920E-17
      4.80000000000000E-01
      0.00000000000000E+00   0.00000000000000E+00   0.00000000000000E+00   0.00000000000000E+00  -3.14414560989976E-13
     -1.42546831282390E-11  -1.45690976892289E-11  -1.60499275100777E-17   1.92000000000000E-01   1.92000000000000E-01
      0.00000000000000E+00   0.00000000000000E+00   0.00000000000000E+00   0.00000000000000E+00   0.00000000000000E+00
     -2.55021599166676E-17   1.30000000000000E-01   1.30000000000000E-01   0.00000000000000E+00   0.00000000000000E+00
      1.45671584752465E-11   1.93921398238591E-15   1.45690976892289E-11   8.03787539506447E-18   3.00000000000000E-01
      3.00000000000000E-01   0.00000000000000E+00   0.00000000000000E+00   0.00000000000000E+00   0.00000000000000E+00
      0.00000000000000E+00   3.35142120316808E-17
      4.95000000000000E-01
      0.00000000000000E+00   0.00000000000000E+00   0.00000000000000E+00   0.00000000000000E+00  -3.16514298564525E-13
     -1.42584357045740E-11  -1.45749500031385E-11  -1.61141579896722E-17   1.98000000000000E-01   1.98000000000000E-01
      0.00000000000000E+00   0.00000000000000E+00   0.00000000000000E+00   0.00000000000000E+00   0.00000000000000E+00
     -2.37939473197015E-17   1.30000000000000E-01   1.30000000000000E-01   0.00000000000000E+00   0.00000000000000E+00
      1.45730402701061E-11   1.90973303244068E-15   1.45749500031385E-11   7.96435831117990E-18   3.00000000000000E-01
      3.00000000000000E-01   0.00000000000000E+00   0.00000000000000E+00   0.00000000000000E+00   0.00000000000000E+00
      0.00000000000000E+00   3.19437469981937E-17
      5.10000000000000E-01
      0.00000000000000E+00   0.00000000000000E+00   0.00000000000000E+00   0.00000000000000E+00  -3.18615700386297E-13
     -1.43108546443671E-11  -1.46294703447534E-11  -1.61783801306192E-17   2.04000000000000E-01   2.04000000000000E-01
      0.00000000000000E+00   0.00000000000000E+00   0.00000000000000E+00   0.00000000000000E+00   0.00000000000000E+00
     -2.20855695597149E-17   1.30000000000000E-01   1.30000000000000E-01   0.00000000000000E+00   0.00000000000000E+00
      1.46275898641249E-11   1.88048062847187E-15   1.46294703447534E-11   7.89050265680276E-18   3.00000000000000E-01
      3.00000000000000E-01   0.00000000000000E+00   0.00000000000000E+00   0.00000000000000E+00   0.00000000000000E+00
      0.00000000000000E+00   3.03734470335313E-17
      5.25000000000000E-01
      0.00000000000000E+00   0.00000000000000E+00   0.00000000000000E+00   0.00000000000000E+00  -3.20718695350255E-13
     -1.44147666708978E-11  -1.47354853662481E-11  -1.62425941075054E-17   2.10000000000000E-01   2.10000000000000E-01
      0.00000000000000E+00   0.00000000000000E+00   0.00000000000000E+00   0.00000000000000E+00   0.00000000000000E+00
     -2.03770192953727E-17   1.30000000000000E-01   1.30000000000000E-01   0.00000000000000E+00   0.00000000000000E+00
      1.47336339081974E-11   1.85145805068213E-15   1.47354853662481E-11   7.81629400593355E-18   3.00000000000000E-01
      3.00000000000000E-01   0.00000000000000E+00   0.00000000000000E+00   0.00000000000000E+00   0.00000000000000E+00
      0.00000000000000E+00   2.88033193969445E-17
      5.40000000000000E-01
      0.00000000000000E+00   0.00000000000000E+00   0.00000000000000E+00   0.00000000000000E+00  -3.22823209397714E-13
     -1.45734152690516E-11  -1.48962384784493E-11  -1.63068000884580E-17   2.16000000000000E-01   2.16000000000000E-01
      0.00000000000000E+00   0.00000000000000E+00   0.00000000000000E+00   0.00000000000000E+00   0.00000000000000E+00
     -1.86682887731238E-17   1.30000000000000E-01   1.30000000000000E-01   0.00000000000000E+00   0.00000000000000E+00
      1.48944158127998E-11   1.82266564953800E-15   1.48962384784493E-11   7.74171711956202E-18   3.00000000000000E-01
      3.00000000000000E-01   0.00000000000000E+00   0.00000000000000E+00   0.00000000000000E+00   0.00000000000000E+00
      0.00000000000000E+00   2.72333717420199E-17
      5.55000000000000E-01
      0.00000000000000E+00   0.00000000000000E+00   0.00000000000000E+00   0.00000000000000E+00  -3.24929161640818E-13