DF-ISE text

Info {
  version   = 1.0
  type      = xyplot
  datasets  = [
    "time"
    "source OuterVoltage" "source InnerVoltage" "source QuasiFermiPotential" "source DisplacementCurrent" "source eCurrent"
    "source hCurrent" "source TotalCurrent" "source Charge" "topGate OuterVoltage" "topGate InnerVoltage"
    "topGate QuasiFermiPotential" "topGate DisplacementCurrent" "topGate eCurrent" "topGate hCurrent" "topGate TotalCurrent"
    "topGate Charge" "drain OuterVoltage" "drain InnerVoltage" "drain QuasiFermiPotential" "drain DisplacementCurrent"
    "drain eCurrent" "drain hCurrent" "drain TotalCurrent" "drain Charge" "bottomGate OuterVoltage"
    "bottomGate InnerVoltage" "bottomGate QuasiFermiPotential" "bottomGate DisplacementCurrent" "bottomGate eCurrent" "bottomGate hCurrent"
    "bottomGate TotalCurrent" "bottomGate Charge" ]
  functions = [
    Time
    OuterVoltage InnerVoltage QuasiFermiPotential DisplacementCurrent eCurrent
    hCurrent TotalCurrent Charge OuterVoltage InnerVoltage
    QuasiFermiPotential DisplacementCurrent eCurrent hCurrent TotalCurrent
    Charge OuterVoltage InnerVoltage QuasiFermiPotential DisplacementCurrent
    eCurrent hCurrent TotalCurrent Charge OuterVoltage
    InnerVoltage QuasiFermiPotential DisplacementCurrent eCurrent hCurrent
    TotalCurrent Charge ]
}

Data {
      1.50000000000000E-02
      0.00000000000000E+00   0.00000000000000E+00   0.00000000000000E+00   0.00000000000000E+00  -1.21420324030575E-13
     -5.05844492319013E-12  -5.17986524722070E-12  -9.43146002768862E-18   6.00000000000000E-03   6.00000000000000E-03
      0.00000000000000E+00   0.00000000000000E+00   0.00000000000000E+00   0.00000000000000E+00   0.00000000000000E+00
     -2.85744814689774E-17   1.50000000000000E-01   1.50000000000000E-01   0.00000000000000E+00   0.00000000000000E+00
      5.17375519475649E-12   6.11005246420830E-15   5.17986524722070E-12   1.52143913679528E-17   3.80000000000000E-01
      3.80000000000000E-01   0.00000000000000E+00   0.00000000000000E+00   0.00000000000000E+00   0.00000000000000E+00
      0.00000000000000E+00   2.27915501287133E-17
      3.00000000000000E-02
      0.00000000000000E+00   0.00000000000000E+00   0.00000000000000E+00   0.00000000000000E+00  -1.23032371384399E-13
     -4.37278353320992E-12  -4.49581590459432E-12  -9.50023099827227E-18   1.20000000000000E-02   1.20000000000000E-02
      0.00000000000000E+00   0.00000000000000E+00   0.00000000000000E+00   0.00000000000000E+00   0.00000000000000E+00
     -2.68685534753095E-17   1.50000000000000E-01   1.50000000000000E-01   0.00000000000000E+00   0.00000000000000E+00
      4.48974940633692E-12   6.06649825739920E-15   4.49581590459432E-12   1.51499901216427E-17   3.80000000000000E-01
      3.80000000000000E-01   0.00000000000000E+00   0.00000000000000E+00   0.00000000000000E+00   0.00000000000000E+00
      0.00000000000000E+00   2.12187943519390E-17
      4.50000000000000E-02
      0.00000000000000E+00   0.00000000000000E+00   0.00000000000000E+00   0.00000000000000E+00  -1.24653975207452E-13
     -3.77866828280780E-12  -3.90332225801525E-12  -9.56885562551047E-18   1.80000000000000E-02   1.80000000000000E-02
      0.00000000000000E+00   0.00000000000000E+00   0.00000000000000E+00   0.00000000000000E+00   0.00000000000000E+00
     -2.51626945957538E-17   1.50000000000000E-01   1.50000000000000E-01   0.00000000000000E+00   0.00000000000000E+00
      3.89729931348288E-12   6.02294453237534E-15   3.90332225801525E-12   1.50855805479819E-17   3.80000000000000E-01
      3.80000000000000E-01   0.00000000000000E+00   0.00000000000000E+00   0.00000000000000E+00   0.00000000000000E+00
      0.00000000000000E+00   1.96459696732824E-17
      6.00000000000000E-02
      0.00000000000000E+00   0.00000000000000E+00   0.00000000000000E+00   0.00000000000000E+00  -1.26285016921191E-13
     -3.26495116223196E-12  -3.39123617915315E-12  -9.63733873919401E-18   2.40000000000000E-02   2.40000000000000E-02
      0.00000000000000E+00   0.00000000000000E+00   0.00000000000000E+00   0.00000000000000E+00   0.00000000000000E+00
     -2.34569020667856E-17   1.50000000000000E-01   1.50000000000000E-01   0.00000000000000E+00   0.00000000000000E+00
      3.38525678197901E-12   5.97939717413793E-15   3.39123617915315E-12   1.50211619781574E-17   3.80000000000000E-01
      3.80000000000000E-01   0.00000000000000E+00   0.00000000000000E+00   0.00000000000000E+00   0.00000000000000E+00
      0.00000000000000E+00   1.80730788278222E-17
      7.50000000000000E-02
      0.00000000000000E+00   0.00000000000000E+00   0.00000000000000E+00   0.00000000000000E+00  -1.27925377314956E-13
     -2.82168777093992E-12  -2.94961314825488E-12  -9.70568500136677E-18   3.00000000000000E-02   3.00000000000000E-02
      0.00000000000000E+00   0.00000000000000E+00   0.00000000000000E+00   0.00000000000000E+00   0.00000000000000E+00
     -2.17511732272434E-17   1.50000000000000E-01   1.50000000000000E-01   0.00000000000000E+00   0.00000000000000E+00
      2.94367728586390E-12   5.93586239097567E-15   2.94961314825488E-12   1.49567337766445E-17   3.80000000000000E-01
      3.80000000000000E-01   0.00000000000000E+00   0.00000000000000E+00   0.00000000000000E+00   0.00000000000000E+00
      0.00000000000000E+00   1.65001244519656E-17
      9.00000000000000E-02
      0.00000000000000E+00   0.00000000000000E+00   0.00000000000000E+00   0.00000000000000E+00  -1.29574936715883E-13
     -2.44002930213738E-12  -2.56960423885327E-12  -9.77389891204583E-18   3.60000000000000E-02   3.60000000000000E-02
      0.00000000000000E+00   0.00000000000000E+00   0.00000000000000E+00   0.00000000000000E+00   0.00000000000000E+00
     -2.00455055127287E-17   1.50000000000000E-01   1.50000000000000E-01   0.00000000000000E+00   0.00000000000000E+00
      2.56371189316938E-12   5.89234568388445E-15   2.56960423885327E-12   1.48922953361975E-17   3.80000000000000E-01
      3.80000000000000E-01   0.00000000000000E+00   0.00000000000000E+00   0.00000000000000E+00   0.00000000000000E+00
      0.00000000000000E+00   1.49271090885770E-17
      1.05000000000000E-01
      0.00000000000000E+00   0.00000000000000E+00   0.00000000000000E+00   0.00000000000000E+00  -1.31233575143960E-13
     -2.11212167677747E-12  -2.24335525192143E-12  -9.84198481477196E-18   4.20000000000000E-02   4.20000000000000E-02
      0.00000000000000E+00   0.00000000000000E+00   0.00000000000000E+00   0.00000000000000E+00   0.00000000000000E+00
     -1.83398964503858E-17   1.50000000000000E-01   1.50000000000000E-01   0.00000000000000E+00   0.00000000000000E+00
      2.23750640095203E-12   5.84885096940089E-15   2.24335525192143E-12   1.48278460733696E-17   3.80000000000000E-01
      3.80000000000000E-01   0.00000000000000E+00   0.00000000000000E+00   0.00000000000000E+00   0.00000000000000E+00
      0.00000000000000E+00   1.33540351917882E-17
      1.20000000000000E-01
      0.00000000000000E+00   0.00000000000000E+00   0.00000000000000E+00   0.00000000000000E+00  -1.32901172454056E-13
     -1.83101161515352E-12  -1.96391278760758E-12  -9.90994690199323E-18   4.80000000000000E-02   4.80000000000000E-02
      0.00000000000000E+00   0.00000000000000E+00   0.00000000000000E+00   0.00000000000000E+00   0.00000000000000E+00
     -1.66343436540224E-17   1.50000000000000E-01   1.50000000000000E-01   0.00000000000000E+00   0.00000000000000E+00
      1.95810740501312E-12   5.80538259445864E-15   1.96391278760758E-12   1.47633854244975E-17   3.80000000000000E-01
      3.80000000000000E-01   0.00000000000000E+00   0.00000000000000E+00   0.00000000000000E+00   0.00000000000000E+00
      0.00000000000000E+00   1.17809051315181E-17
      1.35000000000000E-01
      0.00000000000000E+00   0.00000000000000E+00   0.00000000000000E+00   0.00000000000000E+00  -1.34577608466061E-13
     -1.59055941240168E-12  -1.72513702086774E-12  -9.97778922028410E-18   5.40000000000000E-02   5.40000000000000E-02
      0.00000000000000E+00   0.00000000000000E+00   0.00000000000000E+00   0.00000000000000E+00   0.00000000000000E+00
     -1.49288448195407E-17   1.50000000000000E-01   1.50000000000000E-01   0.00000000000000E+00   0.00000000000000E+00
      1.71937507604883E-12   5.76194481891546E-15   1.72513702086774E-12   1.46989128420969E-17   3.80000000000000E-01
      3.80000000000000E-01   0.00000000000000E+00   0.00000000000000E+00   0.00000000000000E+00   0.00000000000000E+00
      0.00000000000000E+00   1.02077211977279E-17
      1.50000000000000E-01
      0.00000000000000E+00   0.00000000000000E+00   0.00000000000000E+00   0.00000000000000E+00  -1.36262763084339E-13
     -1.38535818015750E-12  -1.52162094324184E-12  -1.00455156754034E-17   6.00000000000000E-02   6.00000000000000E-02
      0.00000000000000E+00   0.00000000000000E+00   0.00000000000000E+00   0.00000000000000E+00   0.00000000000000E+00
     -1.32233977206502E-17   1.50000000000000E-01   1.50000000000000E-01   0.00000000000000E+00   0.00000000000000E+00
      1.51590240196237E-12   5.71854127947477E-15   1.52162094324184E-12   1.46344277916196E-17   3.80000000000000E-01
      3.80000000000000E-01   0.00000000000000E+00   0.00000000000000E+00   0.00000000000000E+00   0.00000000000000E+00
      0.00000000000000E+00   8.63448560443399E-18
      1.65000000000000E-01
      0.00000000000000E+00   0.00000000000000E+00   0.00000000000000E+00   0.00000000000000E+00  -1.37956516407667E-13
     -1.21065930461131E-12  -1.34861582101898E-12  -1.01131300371938E-17   6.60000000000000E-02   6.60000000000000E-02
      0.00000000000000E+00   0.00000000000000E+00   0.00000000000000E+00   0.00000000000000E+00   0.00000000000000E+00
     -1.15180002048350E-17   1.50000000000000E-01   1.50000000000000E-01   0.00000000000000E+00   0.00000000000000E+00
      1.34294064586445E-12   5.67517515452669E-15   1.34861582101898E-12   1.45699297485275E-17   3.80000000000000E-01
      3.80000000000000E-01   0.00000000000000E+00   0.00000000000000E+00   0.00000000000000E+00   0.00000000000000E+00
      0.00000000000000E+00   7.06120049350128E-18
      1.80000000000000E-01
      0.00000000000000E+00   0.00000000000000E+00   0.00000000000000E+00   0.00000000000000E+00  -1.39658748830318E-13
     -1.06230386182296E-12  -1.20196261065328E-12  -1.01806359443267E-17   7.20000000000000E-02   7.20000000000000E-02
      0.00000000000000E+00   0.00000000000000E+00   0.00000000000000E+00   0.00000000000000E+00   0.00000000000000E+00
     -9.81265018955418E-18   1.50000000000000E-01   1.50000000000000E-01   0.00000000000000E+00   0.00000000000000E+00
      1.19633076104077E-12   5.63184961250412E-15   1.20196261065328E-12   1.45054181956476E-17   3.80000000000000E-01
      3.80000000000000E-01   0.00000000000000E+00   0.00000000000000E+00   0.00000000000000E+00   0.00000000000000E+00
      0.00000000000000E+00   5.48786793823330E-18
      1.95000000000000E-01
      0.00000000000000E+00   0.00000000000000E+00   0.00000000000000E+00   0.00000000000000E+00  -1.41369341135134E-13
     -9.36659724270946E-13  -1.07802906540608E-12  -1.02480369088948E-17   7.80000000000000E-02   7.80000000000000E-02
      0.00000000000000E+00   0.00000000000000E+00   0.00000000000000E+00   0.00000000000000E+00   0.00000000000000E+00
     -8.10734565865451E-18   1.50000000000000E-01   1.50000000000000E-01   0.00000000000000E+00   0.00000000000000E+00
      1.07244049801482E-12   5.58856739125544E-15   1.07802906540608E-12   1.44408926207719E-17   3.80000000000000E-01
      3.80000000000000E-01   0.00000000000000E+00   0.00000000000000E+00   0.00000000000000E+00   0.00000000000000E+00
      0.00000000000000E+00   3.91448994677741E-18
      2.10000000000000E-01
      0.00000000000000E+00   0.00000000000000E+00   0.00000000000000E+00   0.00000000000000E+00  -1.43088174579305E-13
     -8.30564091618769E-13  -9.73652266198074E-13  -1.03153363208572E-17   8.40000000000000E-02   8.40000000000000E-02
      0.00000000000000E+00   0.00000000000000E+00   0.00000000000000E+00   0.00000000000000E+00   0.00000000000000E+00
     -6.40208465897565E-18   1.50000000000000E-01   1.50000000000000E-01   0.00000000000000E+00   0.00000000000000E+00
      9.68106934899643E-13   5.54533129843150E-15   9.73652266198075E-13   1.43763525144733E-17   3.80000000000000E-01
      3.80000000000000E-01   0.00000000000000E+00   0.00000000000000E+00   0.00000000000000E+00   0.00000000000000E+00
      0.00000000000000E+00   2.34106846535950E-18
      2.25000000000000E-01
      0.00000000000000E+00   0.00000000000000E+00   0.00000000000000E+00   0.00000000000000E+00  -1.44815130973305E-13
     -7.41271173392930E-13  -8.86086304366235E-13  -1.03825374523387E-17   9.00000000000000E-02   9.00000000000000E-02
      0.00000000000000E+00   0.00000000000000E+00   0.00000000000000E+00   0.00000000000000E+00   0.00000000000000E+00
     -4.69686529713316E-18   1.50000000000000E-01   1.50000000000000E-01   0.00000000000000E+00   0.00000000000000E+00
      8.80584160614601E-13   5.50214375163358E-15   8.86086304366234E-13   1.43117973681098E-17   3.80000000000000E-01
      3.80000000000000E-01   0.00000000000000E+00   0.00000000000000E+00   0.00000000000000E+00   0.00000000000000E+00
      0.00000000000000E+00   7.67605381362068E-19
      2.40000000000000E-01
      0.00000000000000E+00   0.00000000000000E+00   0.00000000000000E+00   0.00000000000000E+00  -1.46550092753624E-13
     -6.66404755750288E-13  -8.12954848503912E-13  -1.04496434617889E-17   9.60000000000000E-02   9.60000000000000E-02
      0.00000000000000E+00   0.00000000000000E+00   0.00000000000000E+00   0.00000000000000E+00   0.00000000000000E+00
     -2.99168573646312E-18   1.50000000000000E-01   1.50000000000000E-01   0.00000000000000E+00   0.00000000000000E+00
      8.07495841318876E-13   5.45900718503648E-15   8.12954848503912E-13   1.42472266719940E-17   3.80000000000000E-01
      3.80000000000000E-01   0.00000000000000E+00   0.00000000000000E+00   0.00000000000000E+00   0.00000000000000E+00
      0.00000000000000E+00  -8.05897473741989E-19
      2.55000000000000E-01
      0.00000000000000E+00   0.00000000000000E+00   0.00000000000000E+00   0.00000000000000E+00  -1.48292943049715E-13
     -6.03915384199165E-13  -7.52208327248879E-13  -1.05166573980023E-17   1.02000000000000E-01   1.02000000000000E-01
      0.00000000000000E+00   0.00000000000000E+00   0.00000000000000E+00   0.00000000000000E+00   0.00000000000000E+00
     -1.28654419411549E-18   1.50000000000000E-01   1.50000000000000E-01   0.00000000000000E+00   0.00000000000000E+00
      7.46792403630863E-13   5.41592361801617E-15   7.52208327248879E-13   1.41826399137066E-17   3.80000000000000E-01
      3.80000000000000E-01   0.00000000000000E+00   0.00000000000000E+00   0.00000000000000E+00   0.00000000000000E+00
      0.00000000000000E+00  -2.37943832158882E-18
      2.70000000000000E-01
      0.00000000000000E+00   0.00000000000000E+00   0.00000000000000E+00   0.00000000000000E+00  -1.50043565745847E-13
     -5.52041903562674E-13  -7.02085469308521E-13  -1.05835822040053E-17   1.08000000000000E-01   1.08000000000000E-01
      0.00000000000000E+00   0.00000000000000E+00   0.00000000000000E+00   0.00000000000000E+00   0.00000000000000E+00
      4.18561061716145E-19   1.50000000000000E-01   1.50000000000000E-01   0.00000000000000E+00   0.00000000000000E+00
      6.96712573882726E-13   5.37289542579653E-15   7.02085469308522E-13   1.41180365765350E-17   3.80000000000000E-01
      3.80000000000000E-01   0.00000000000000E+00   0.00000000000000E+00   0.00000000000000E+00   0.00000000000000E+00
      0.00000000000000E+00  -3.95301543424586E-18
      2.85000000000000E-01
      0.00000000000000E+00   0.00000000000000E+00   0.00000000000000E+00   0.00000000000000E+00  -1.51801845537666E-13
     -5.09277099654930E-13  -6.61078945192596E-13  -1.06504207208119E-17   1.14000000000000E-01   1.14000000000000E-01
      0.00000000000000E+00   0.00000000000000E+00   0.00000000000000E+00   0.00000000000000E+00   0.00000000000000E+00
      2.12363171443922E-18   1.50000000000000E-01   1.50000000000000E-01   0.00000000000000E+00   0.00000000000000E+00
      6.55749020787729E-13   5.32992440486771E-15   6.61078945192597E-13   1.40534161380205E-17   3.80000000000000E-01
      3.80000000000000E-01   0.00000000000000E+00   0.00000000000000E+00   0.00000000000000E+00   0.00000000000000E+00
      0.00000000000000E+00  -5.52662713164790E-18
      3.00000000000000E-01
      0.00000000000000E+00   0.00000000000000E+00   0.00000000000000E+00   0.00000000000000E+00  -1.53567667984816E-13
     -4.74337204007429E-13  -6.27904871992244E-13  -1.07171756910521E-17   1.20000000000000E-01   1.20000000000000E-01
      0.00000000000000E+00   0.00000000000000E+00   0.00000000000000E+00   0.00000000000000E+00   0.00000000000000E+00
      3.82866940159146E-18   1.50000000000000E-01   1.50000000000000E-01   0.00000000000000E+00   0.00000000000000E+00
      6.22617859432514E-13   5.28701255973039E-15   6.27904871992244E-13   1.39887780685989E-17   3.80000000000000E-01
      3.80000000000000E-01   0.00000000000000E+00   0.00000000000000E+00   0.00000000000000E+00   0.00000000000000E+00
      0.00000000000000E+00  -7.10027177913829E-18
      3.15000000000000E-01
      0.00000000000000E+00   0.00000000000000E+00   0.00000000000000E+00   0.00000000000000E+00  -1.55340919558993E-13
     -4.46135029482929E-13  -6.01475949041923E-13  -1.07838497624774E-17   1.26000000000000E-01   1.26000000000000E-01
      0.00000000000000E+00   0.00000000000000E+00   0.00000000000000E+00   0.00000000000000E+00   0.00000000000000E+00
      5.53367571726358E-18   1.50000000000000E-01   1.50000000000000E-01   0.00000000000000E+00   0.00000000000000E+00
      5.96231787360614E-13   5.24416168130849E-15   6.01475949041922E-13   1.39241218303214E-17   3.80000000000000E-01
      3.80000000000000E-01   0.00000000000000E+00   0.00000000000000E+00   0.00000000000000E+00   0.00000000000000E+00
      0.00000000000000E+00  -8.67394778510765E-18
      3.30000000000000E-01
      0.00000000000000E+00   0.00000000000000E+00   0.00000000000000E+00   0.00000000000000E+00  -1.57121487688559E-13
     -4.23756524345258E-13  -5.80878012033817E-13  -1.08504454913452E-17   1.32000000000000E-01   1.32000000000000E-01
      0.00000000000000E+00   0.00000000000000E+00   0.00000000000000E+00   0.00000000000000E+00   0.00000000000000E+00
      7.23865221442379E-18   1.50000000000000E-01   1.50000000000000E-01   0.00000000000000E+00   0.00000000000000E+00
      5.75676638578893E-13   5.20137345492337E-15   5.80878012033816E-13   1.38594468756443E-17   3.80000000000000E-01
      3.80000000000000E-01   0.00000000000000E+00   0.00000000000000E+00   0.00000000000000E+00   0.00000000000000E+00
      0.00000000000000E+00  -1.02476535987229E-17
      3.45000000000000E-01
      0.00000000000000E+00   0.00000000000000E+00   0.00000000000000E+00   0.00000000000000E+00  -1.58909260799866E-13
     -4.06440547317878E-13  -5.65349808117744E-13  -1.09169653456874E-17   1.38000000000000E-01   1.38000000000000E-01
      0.00000000000000E+00   0.00000000000000E+00   0.00000000000000E+00   0.00000000000000E+00   0.00000000000000E+00
      8.94360040715164E-18   1.50000000000000E-01   1.50000000000000E-01   0.00000000000000E+00   0.00000000000000E+00
      5.60191158439568E-13   5.15864967817637E-15   5.65349808117744E-13   1.37947526462758E-17   3.80000000000000E-01
      3.80000000000000E-01   0.00000000000000E+00   0.00000000000000E+00   0.00000000000000E+00   0.00000000000000E+00
      0.00000000000000E+00  -1.18213877077400E-17
      3.60000000000000E-01
      0.00000000000000E+00   0.00000000000000E+00   0.00000000000000E+00   0.00000000000000E+00  -1.60704128355082E-13
     -3.93561684863602E-13  -5.54265813218685E-13  -1.09834117084650E-17   1.44000000000000E-01   1.44000000000000E-01
      0.00000000000000E+00   0.00000000000000E+00   0.00000000000000E+00   0.00000000000000E+00   0.00000000000000E+00
      1.06485217727881E-17   1.50000000000000E-01   1.50000000000000E-01   0.00000000000000E+00   0.00000000000000E+00
      5.49149821347957E-13   5.11599187072739E-15   5.54265813218685E-13   1.37300385720720E-17   3.80000000000000E-01
      3.80000000000000E-01   0.00000000000000E+00   0.00000000000000E+00   0.00000000000000E+00   0.00000000000000E+00
      0.00000000000000E+00  -1.33951486363951E-17
      3.75000000000000E-01
      0.00000000000000E+00   0.00000000000000E+00   0.00000000000000E+00   0.00000000000000E+00  -1.62505980887851E-13
     -3.84615954612267E-13  -5.47121935500118E-13  -1.10497868806138E-17   1.50000000000000E-01   1.50000000000000E-01
      0.00000000000000E+00   0.00000000000000E+00   0.00000000000000E+00   0.00000000000000E+00   0.00000000000000E+00
      1.23534177540085E-17   1.50000000000000E-01   1.50000000000000E-01   0.00000000000000E+00   0.00000000000000E+00
      5.42048533910278E-13   5.07340158983963E-15   5.47121935500118E-13   1.36653040699719E-17   3.80000000000000E-01
      3.80000000000000E-01   0.00000000000000E+00   0.00000000000000E+00   0.00000000000000E+00   0.00000000000000E+00
      0.00000000000000E+00  -1.49689349433667E-17
      3.90000000000000E-01
      0.00000000000000E+00   0.00000000000000E+00   0.00000000000000E+00   0.00000000000000E+00  -1.64314710036016E-13
     -3.79209258518246E-13  -5.43523968554263E-13  -1.11160930839818E-17   1.56000000000000E-01   1.56000000000000E-01
      0.00000000000000E+00   0.00000000000000E+00   0.00000000000000E+00   0.00000000000000E+00   0.00000000000000E+00
      1.40582897608233E-17   1.50000000000000E-01   1.50000000000000E-01   0.00000000000000E+00   0.00000000000000E+00
      5.38493088222148E-13   5.03088033211428E-15   5.43523968554263E-13   1.36005485429644E-17   3.80000000000000E-01
      3.80000000000000E-01   0.00000000000000E+00   0.00000000000000E+00   0.00000000000000E+00   0.00000000000000E+00
      0.00000000000000E+00  -1.65427452198058E-17
      4.05000000000000E-01
      0.00000000000000E+00   0.00000000000000E+00   0.00000000000000E+00   0.00000000000000E+00  -1.66130208572376E-13
     -3.77048474215104E-13  -5.43178682787480E-13  -1.11823324641657E-17   1.62000000000000E-01   1.62000000000000E-01
      0.00000000000000E+00   0.00000000000000E+00   0.00000000000000E+00   0.00000000000000E+00   0.00000000000000E+00
      1.57631391725134E-17   1.50000000000000E-01   1.50000000000000E-01   0.00000000000000E+00   0.00000000000000E+00
      5.38190253254790E-13   4.98842953269025E-15   5.43178682787480E-13   1.35357713790804E-17   3.80000000000000E-01
      3.80000000000000E-01   0.00000000000000E+00   0.00000000000000E+00   0.00000000000000E+00   0.00000000000000E+00
      0.00000000000000E+00  -1.81165780874281E-17
      4.20000000000000E-01
      0.00000000000000E+00   0.00000000000000E+00   0.00000000000000E+00   0.00000000000000E+00  -1.67952370433127E-13
     -3.77935096511462E-13  -5.45887466944588E-13  -1.12485070932450E-17   1.68000000000000E-01   1.68000000000000E-01
      0.00000000000000E+00   0.00000000000000E+00   0.00000000000000E+00   0.00000000000000E+00   0.00000000000000E+00
      1.74679673395046E-17   1.50000000000000E-01   1.50000000000000E-01   0.00000000000000E+00   0.00000000000000E+00
      5.40941416437435E-13   4.94605050715367E-15   5.45887466944588E-13   1.34709719504037E-17   3.80000000000000E-01
      3.80000000000000E-01   0.00000000000000E+00   0.00000000000000E+00   0.00000000000000E+00   0.00000000000000E+00
      0.00000000000000E+00  -1.96904321966633E-17
      4.35000000000000E-01
      0.00000000000000E+00   0.00000000000000E+00   0.00000000000000E+00   0.00000000000000E+00  -1.69781090745134E-13
     -3.81761366150626E-13  -5.51542456895760E-13  -1.13146189724207E-17   1.74000000000000E-01   1.74000000000000E-01
      0.00000000000000E+00   0.00000000000000E+00   0.00000000000000E+00   0.00000000000000E+00   0.00000000000000E+00
      1.91727755851845E-17   1.50000000000000E-01   1.50000000000000E-01   0.00000000000000E+00   0.00000000000000E+00
      5.46638712277870E-13   4.90374461789013E-15   5.51542456895760E-13   1.34061496120945E-17   3.80000000000000E-01
      3.80000000000000E-01   0.00000000000000E+00   0.00000000000000E+00   0.00000000000000E+00   0.00000000000000E+00
      0.00000000000000E+00  -2.12643062248582E-17
      4.50000000000000E-01
      0.00000000000000E+00   0.00000000000000E+00   0.00000000000000E+00   0.00000000000000E+00  -1.71616265850608E-13
     -3.88508847156412E-13  -5.60125113007020E-13  -1.13806700345595E-17   1.80000000000000E-01   1.80000000000000E-01
      0.00000000000000E+00   0.00000000000000E+00   0.00000000000000E+00   0.00000000000000E+00   0.00000000000000E+00
      2.08775652076687E-17   1.50000000000000E-01   1.50000000000000E-01   0.00000000000000E+00   0.00000000000000E+00
      5.55263599906267E-13   4.86151310075317E-15   5.60125113007021E-13   1.33413037014203E-17   3.80000000000000E-01
      3.80000000000000E-01   0.00000000000000E+00   0.00000000000000E+00   0.00000000000000E+00   0.00000000000000E+00
      0.00000000000000E+00  -2.28381988745295E-17
      4.65000000000000E-01
      0.00000000000000E+00   0.00000000000000E+00   0.00000000000000E+00   0.00000000000000E+00  -1.73457793330642E-13
     -3.98249440231714E-13  -5.71707233562356E-13  -1.14466621466472E-17   1.86000000000000E-01   1.86000000000000E-01
      0.00000000000000E+00   0.00000000000000E+00   0.00000000000000E+00   0.00000000000000E+00   0.00000000000000E+00
      2.25823374815185E-17   1.50000000000000E-01   1.50000000000000E-01   0.00000000000000E+00   0.00000000000000E+00
      5.66887876485040E-13   4.81935707731511E-15   5.71707233562355E-13   1.32764335367900E-17   3.80000000000000E-01
      3.80000000000000E-01   0.00000000000000E+00   0.00000000000000E+00   0.00000000000000E+00   0.00000000000000E+00
      0.00000000000000E+00  -2.44121088716613E-17
      4.80000000000000E-01
      0.00000000000000E+00   0.00000000000000E+00   0.00000000000000E+00   0.00000000000000E+00  -1.75305572027335E-13
     -4.11148843846657E-13  -5.86454415873992E-13  -1.15125971121544E-17   1.92000000000000E-01   1.92000000000000E-01
      0.00000000000000E+00   0.00000000000000E+00   0.00000000000000E+00   0.00000000000000E+00   0.00000000000000E+00
      2.42870936594147E-17   1.50000000000000E-01   1.50000000000000E-01   0.00000000000000E+00   0.00000000000000E+00
      5.81677138200161E-13   4.77727767383061E-15   5.86454415873992E-13   1.32115384167858E-17   3.80000000000000E-01
      3.80000000000000E-01   0.00000000000000E+00   0.00000000000000E+00   0.00000000000000E+00   0.00000000000000E+00
      0.00000000000000E+00  -2.59860349640460E-17
      4.95000000000000E-01
      0.00000000000000E+00   0.00000000000000E+00   0.00000000000000E+00   0.00000000000000E+00  -1.77159502064339E-13
     -4.27472498610143E-13  -6.04632000674482E-13  -1.15784766733174E-17   1.98000000000000E-01   1.98000000000000E-01
      0.00000000000000E+00   0.00000000000000E+00   0.00000000000000E+00   0.00000000000000E+00   0.00000000000000E+00
      2.59918349737912E-17   1.50000000000000E-01   1.50000000000000E-01   0.00000000000000E+00   0.00000000000000E+00
      5.99896724766695E-13   4.73527590778683E-15   6.04632000674482E-13   1.31466176191893E-17   3.80000000000000E-01
      3.80000000000000E-01   0.00000000000000E+00   0.00000000000000E+00   0.00000000000000E+00   0.00000000000000E+00
      0.00000000000000E+00  -2.75599759196630E-17
      5.10000000000000E-01
      0.00000000000000E+00   0.00000000000000E+00   0.00000000000000E+00   0.00000000000000E+00  -1.79019484865449E-13
     -4.47594074604306E-13  -6.26613559469755E-13  -1.16443025133362E-17   2.04000000000000E-01   2.04000000000000E-01
      0.00000000000000E+00   0.00000000000000E+00   0.00000000000000E+00   0.00000000000000E+00   0.00000000000000E+00
      2.76965626384312E-17   1.50000000000000E-01   1.50000000000000E-01   0.00000000000000E+00   0.00000000000000E+00
      6.21920206780846E-13   4.69335268890985E-15   6.26613559469756E-13   1.30816703999980E-17   3.80000000000000E-01
      3.80000000000000E-01   0.00000000000000E+00   0.00000000000000E+00   0.00000000000000E+00   0.00000000000000E+00
      0.00000000000000E+00  -2.91339305250930E-17
      5.25000000000000E-01
      0.00000000000000E+00   0.00000000000000E+00   0.00000000000000E+00   0.00000000000000E+00  -1.80885423172263E-13
     -4.72006583264552E-13  -6.52892006436814E-13  -1.17100762584939E-17   2.10000000000000E-01   2.10000000000000E-01
      0.00000000000000E+00   0.00000000000000E+00   0.00000000000000E+00   0.00000000000000E+00   0.00000000000000E+00
      2.94012778500307E-17   1.50000000000000E-01   1.50000000000000E-01   0.00000000000000E+00   0.00000000000000E+00
      6.48240497596624E-13   4.65150884019012E-15   6.52892006436814E-13   1.30166959924283E-17   3.80000000000000E-01
      3.80000000000000E-01   0.00000000000000E+00   0.00000000000000E+00   0.00000000000000E+00   0.00000000000000E+00
      0.00000000000000E+00  -3.07078975839651E-17
      5.40000000000000E-01
      0.00000000000000E+00   0.00000000000000E+00   0.00000000000000E+00   0.00000000000000E+00  -1.82757221059960E-13
     -5.01336216472509E-13  -6.84093437532469E-13  -1.17757994801989E-17   2.16000000000000E-01   2.16000000000000E-01
      0.00000000000000E+00   0.00000000000000E+00   0.00000000000000E+00   0.00000000000000E+00   0.00000000000000E+00
      3.11059817897308E-17   1.50000000000000E-01   1.50000000000000E-01   0.00000000000000E+00   0.00000000000000E+00
      6.79483692480152E-13   4.60974505231576E-15   6.84093437532468E-13   1.29516936059012E-17   3.80000000000000E-01
      3.80000000000000E-01   0.00000000000000E+00   0.00000000000000E+00   0.00000000000000E+00   0.00000000000000E+00
      0.00000000000000E+00  -3.22818759154331E-17
      5.55000000000000E-01
      0.00000000000000E+00   0.00000000000000E+00   0.00000000000000E+00   0.00000000000000E+00  -1.84634783950947E-13