DF-ISE text

Info {
  version   = 1.0
  type      = xyplot
  datasets  = [
    "time"
    "source OuterVoltage" "source InnerVoltage" "source QuasiFermiPotential" "source DisplacementCurrent" "source eCurrent"
    "source hCurrent" "source TotalCurrent" "source Charge" "topGate OuterVoltage" "topGate InnerVoltage"
    "topGate QuasiFermiPotential" "topGate DisplacementCurrent" "topGate eCurrent" "topGate hCurrent" "topGate TotalCurrent"
    "topGate Charge" "drain OuterVoltage" "drain InnerVoltage" "drain QuasiFermiPotential" "drain DisplacementCurrent"
    "drain eCurrent" "drain hCurrent" "drain TotalCurrent" "drain Charge" "bottomGate OuterVoltage"
    "bottomGate InnerVoltage" "bottomGate QuasiFermiPotential" "bottomGate DisplacementCurrent" "bottomGate eCurrent" "bottomGate hCurrent"
    "bottomGate TotalCurrent" "bottomGate Charge" ]
  functions = [
    Time
    OuterVoltage InnerVoltage QuasiFermiPotential DisplacementCurrent eCurrent
    hCurrent TotalCurrent Charge OuterVoltage InnerVoltage
    QuasiFermiPotential DisplacementCurrent eCurrent hCurrent TotalCurrent
    Charge OuterVoltage InnerVoltage QuasiFermiPotential DisplacementCurrent
    eCurrent hCurrent TotalCurrent Charge OuterVoltage
    InnerVoltage QuasiFermiPotential DisplacementCurrent eCurrent hCurrent
    TotalCurrent Charge ]
}

Data {
      1.50000000000000E-02
      0.00000000000000E+00   0.00000000000000E+00   0.00000000000000E+00   0.00000000000000E+00  -2.65714921156773E-13
     -1.69101834163920E-10  -1.69367549085077E-10  -1.44839206157859E-17   6.00000000000000E-03   6.00000000000000E-03
      0.00000000000000E+00   0.00000000000000E+00   0.00000000000000E+00   0.00000000000000E+00   0.00000000000000E+00
     -9.12996608380583E-17   3.50000000000000E-01   3.50000000000000E-01   0.00000000000000E+00   0.00000000000000E+00
      1.69361863310232E-10   5.68577484432769E-15   1.69367549085077E-10   1.45699284624624E-17   3.40000000000000E-01
      3.40000000000000E-01   0.00000000000000E+00   0.00000000000000E+00   0.00000000000000E+00   0.00000000000000E+00
      0.00000000000000E+00   9.12136529913817E-17
      3.00000000000000E-02
      0.00000000000000E+00   0.00000000000000E+00   0.00000000000000E+00   0.00000000000000E+00  -2.67772561907920E-13
     -1.56035172339079E-10  -1.56302944900987E-10  -1.45484269851726E-17   1.20000000000000E-02   1.20000000000000E-02
      0.00000000000000E+00   0.00000000000000E+00   0.00000000000000E+00   0.00000000000000E+00   0.00000000000000E+00
     -8.95958156556368E-17   3.50000000000000E-01   3.50000000000000E-01   0.00000000000000E+00   0.00000000000000E+00
      1.56297302501287E-10   5.64239970068116E-15   1.56302944900987E-10   1.45054267806102E-17   3.40000000000000E-01
      3.40000000000000E-01   0.00000000000000E+00   0.00000000000000E+00   0.00000000000000E+00   0.00000000000000E+00
      0.00000000000000E+00   8.96388158601991E-17
      4.50000000000000E-02
      0.00000000000000E+00   0.00000000000000E+00   0.00000000000000E+00   0.00000000000000E+00  -2.69832983545268E-13
     -1.44117171993706E-10  -1.44387004977251E-10  -1.46129185060346E-17   1.80000000000000E-02   1.80000000000000E-02
      0.00000000000000E+00   0.00000000000000E+00   0.00000000000000E+00   0.00000000000000E+00   0.00000000000000E+00
     -8.78919703634903E-17   3.50000000000000E-01   3.50000000000000E-01   0.00000000000000E+00   0.00000000000000E+00
      1.44381405895884E-10   5.59908136708404E-15   1.44387004977251E-10   1.44409100267024E-17   3.40000000000000E-01
      3.40000000000000E-01   0.00000000000000E+00   0.00000000000000E+00   0.00000000000000E+00   0.00000000000000E+00
      0.00000000000000E+00   8.80639788428225E-17
      6.00000000000000E-02
      0.00000000000000E+00   0.00000000000000E+00   0.00000000000000E+00   0.00000000000000E+00  -2.71896149588343E-13
     -1.33254510032080E-10  -1.33526406181668E-10  -1.46773955519525E-17   2.40000000000000E-02   2.40000000000000E-02
      0.00000000000000E+00   0.00000000000000E+00   0.00000000000000E+00   0.00000000000000E+00   0.00000000000000E+00
     -8.61881245768964E-17   3.50000000000000E-01   3.50000000000000E-01   0.00000000000000E+00   0.00000000000000E+00
      1.33520850359343E-10   5.55582232480959E-15   1.33526406181668E-10   1.43763778052707E-17   3.40000000000000E-01
      3.40000000000000E-01   0.00000000000000E+00   0.00000000000000E+00   0.00000000000000E+00   0.00000000000000E+00
      0.00000000000000E+00   8.64891423235781E-17
      7.50000000000000E-02
      0.00000000000000E+00   0.00000000000000E+00   0.00000000000000E+00   0.00000000000000E+00  -2.73962022824123E-13
     -1.23360337885148E-10  -1.23634299907972E-10  -1.47418584855439E-17   3.00000000000000E-02   3.00000000000000E-02
      0.00000000000000E+00   0.00000000000000E+00   0.00000000000000E+00   0.00000000000000E+00   0.00000000000000E+00
     -8.44842779107387E-17   3.50000000000000E-01   3.50000000000000E-01   0.00000000000000E+00   0.00000000000000E+00
      1.23628787283163E-10   5.51262480920780E-15   1.23634299907972E-10   1.43118297090632E-17   3.40000000000000E-01
      3.40000000000000E-01   0.00000000000000E+00   0.00000000000000E+00   0.00000000000000E+00   0.00000000000000E+00
      0.00000000000000E+00   8.49143066872194E-17
      9.00000000000000E-02
      0.00000000000000E+00   0.00000000000000E+00   0.00000000000000E+00   0.00000000000000E+00  -2.76030565411393E-13
     -1.14353949838761E-10  -1.14629980404172E-10  -1.48063076588240E-17   3.60000000000000E-02   3.60000000000000E-02
      0.00000000000000E+00   0.00000000000000E+00   0.00000000000000E+00   0.00000000000000E+00   0.00000000000000E+00
     -8.27804299791149E-17   3.50000000000000E-01   3.50000000000000E-01   0.00000000000000E+00   0.00000000000000E+00
      1.14624510913339E-10   5.46949083286322E-15   1.14629980404172E-10   1.42472653186204E-17   3.40000000000000E-01
      3.40000000000000E-01   0.00000000000000E+00   0.00000000000000E+00   0.00000000000000E+00   0.00000000000000E+00
      0.00000000000000E+00   8.33394723193186E-17
      1.05000000000000E-01
      0.00000000000000E+00   0.00000000000000E+00   0.00000000000000E+00   0.00000000000000E+00  -2.78101738960126E-13
     -1.06160461946644E-10  -1.06438563685605E-10  -1.48707434135528E-17   4.20000000000000E-02   4.20000000000000E-02
      0.00000000000000E+00   0.00000000000000E+00   0.00000000000000E+00   0.00000000000000E+00   0.00000000000000E+00
     -8.10765803949413E-17   3.50000000000000E-01   3.50000000000000E-01   0.00000000000000E+00   0.00000000000000E+00
      1.06433137263399E-10   5.42642220524926E-15   1.06438563685604E-10   1.41826842018359E-17   3.40000000000000E-01
      3.40000000000000E-01   0.00000000000000E+00   0.00000000000000E+00   0.00000000000000E+00   0.00000000000000E+00
      0.00000000000000E+00   8.17646396066582E-17
      1.20000000000000E-01
      0.00000000000000E+00   0.00000000000000E+00   0.00000000000000E+00   0.00000000000000E+00  -2.80175504593185E-13
     -9.87105013536272E-11  -9.89906768582204E-11  -1.49351660815699E-17   4.80000000000000E-02   4.80000000000000E-02
      0.00000000000000E+00   0.00000000000000E+00   0.00000000000000E+00   0.00000000000000E+00   0.00000000000000E+00
     -7.93727287695577E-17   3.50000000000000E-01   3.50000000000000E-01   0.00000000000000E+00   0.00000000000000E+00
      9.89852934376721E-11   5.38342054838275E-15   9.89906768582205E-11   1.41180859135017E-17   3.40000000000000E-01
      3.40000000000000E-01   0.00000000000000E+00   0.00000000000000E+00   0.00000000000000E+00   0.00000000000000E+00
      0.00000000000000E+00   8.01898089376260E-17
      1.35000000000000E-01
      0.00000000000000E+00   0.00000000000000E+00   0.00000000000000E+00   0.00000000000000E+00  -2.82251822988809E-13
     -9.19399059079358E-11  -9.22221577309246E-11  -1.49995759851175E-17   5.40000000000000E-02   5.40000000000000E-02
      0.00000000000000E+00   0.00000000000000E+00   0.00000000000000E+00   0.00000000000000E+00   0.00000000000000E+00
     -7.76688747123292E-17   3.50000000000000E-01   3.50000000000000E-01   0.00000000000000E+00   0.00000000000000E+00
      9.22168172436076E-11   5.34048731726804E-15   9.22221577309248E-11   1.40534699948374E-17   3.40000000000000E-01
      3.40000000000000E-01   0.00000000000000E+00   0.00000000000000E+00   0.00000000000000E+00   0.00000000000000E+00
      0.00000000000000E+00   7.86149807026093E-17
      1.50000000000000E-01
      0.00000000000000E+00   0.00000000000000E+00   0.00000000000000E+00   0.00000000000000E+00  -2.84330654401604E-13
     -8.57894339836285E-11  -8.60737646380301E-11  -1.50639734371525E-17   6.00000000000000E-02   6.00000000000000E-02
      0.00000000000000E+00   0.00000000000000E+00   0.00000000000000E+00   0.00000000000000E+00   0.00000000000000E+00
     -7.59650178302453E-17   3.50000000000000E-01   3.50000000000000E-01   0.00000000000000E+00   0.00000000000000E+00
      8.60684670142169E-11   5.29762381313149E-15   8.60737646380300E-11   1.39888359730025E-17   3.40000000000000E-01
      3.40000000000000E-01   0.00000000000000E+00   0.00000000000000E+00   0.00000000000000E+00   0.00000000000000E+00
      0.00000000000000E+00   7.70401552943953E-17
      1.65000000000000E-01
      0.00000000000000E+00   0.00000000000000E+00   0.00000000000000E+00   0.00000000000000E+00  -2.86411958666607E-13
     -8.02044844668471E-11  -8.04908964255137E-11  -1.51283587416468E-17   6.60000000000000E-02   6.60000000000000E-02
      0.00000000000000E+00   0.00000000000000E+00   0.00000000000000E+00   0.00000000000000E+00   0.00000000000000E+00
     -7.42611577275166E-17   3.50000000000000E-01   3.50000000000000E-01   0.00000000000000E+00   0.00000000000000E+00
      8.04856415943117E-11   5.25483120209019E-15   8.04908964255138E-11   1.39241833605910E-17   3.40000000000000E-01
      3.40000000000000E-01   0.00000000000000E+00   0.00000000000000E+00   0.00000000000000E+00   0.00000000000000E+00
      0.00000000000000E+00   7.54653331085725E-17
      1.80000000000000E-01
      0.00000000000000E+00   0.00000000000000E+00   0.00000000000000E+00   0.00000000000000E+00  -2.88495695191100E-13
     -7.51348268840963E-11  -7.54233225792874E-11  -1.51927321938770E-17   7.20000000000000E-02   7.20000000000000E-02
      0.00000000000000E+00   0.00000000000000E+00   0.00000000000000E+00   0.00000000000000E+00   0.00000000000000E+00
     -7.25572940051667E-17   3.50000000000000E-01   3.50000000000000E-01   0.00000000000000E+00   0.00000000000000E+00
      7.54181104687603E-11   5.21211052714939E-15   7.54233225792874E-11   1.38595116551073E-17   3.40000000000000E-01
      3.40000000000000E-01   0.00000000000000E+00   0.00000000000000E+00   0.00000000000000E+00   0.00000000000000E+00
      0.00000000000000E+00   7.38905145439364E-17
      1.95000000000000E-01
      0.00000000000000E+00   0.00000000000000E+00   0.00000000000000E+00   0.00000000000000E+00  -2.90581822917969E-13
     -7.05343416684276E-11  -7.08249234913456E-11  -1.52570940807047E-17   7.80000000000000E-02   7.80000000000000E-02
      0.00000000000000E+00   0.00000000000000E+00   0.00000000000000E+00   0.00000000000000E+00   0.00000000000000E+00
     -7.08534262606202E-17   3.50000000000000E-01   3.50000000000000E-01   0.00000000000000E+00   0.00000000000000E+00
      7.08197540286182E-11   5.16946272724080E-15   7.08249234913455E-11   1.37948203384240E-17   3.40000000000000E-01
      3.40000000000000E-01   0.00000000000000E+00   0.00000000000000E+00   0.00000000000000E+00   0.00000000000000E+00
      0.00000000000000E+00   7.23157000029009E-17
      2.10000000000000E-01
      0.00000000000000E+00   0.00000000000000E+00   0.00000000000000E+00   0.00000000000000E+00  -2.92670300281508E-13
     -6.63607705712530E-11  -6.66534408715345E-11  -1.53214446808463E-17   8.40000000000000E-02   8.40000000000000E-02
      0.00000000000000E+00   0.00000000000000E+00   0.00000000000000E+00   0.00000000000000E+00   0.00000000000000E+00
     -6.91495540872854E-17   3.50000000000000E-01   3.50000000000000E-01   0.00000000000000E+00   0.00000000000000E+00
      6.66483139828848E-11   5.12688864970273E-15   6.66534408715345E-11   1.37301088762184E-17   3.40000000000000E-01
      3.40000000000000E-01   0.00000000000000E+00   0.00000000000000E+00   0.00000000000000E+00   0.00000000000000E+00
      0.00000000000000E+00   7.07408898919133E-17
      2.25000000000000E-01
      0.00000000000000E+00   0.00000000000000E+00   0.00000000000000E+00   0.00000000000000E+00  -2.94761085136655E-13
     -6.25754772346469E-11  -6.28702383197835E-11  -1.53857842651333E-17   9.00000000000000E-02   9.00000000000000E-02
      0.00000000000000E+00   0.00000000000000E+00   0.00000000000000E+00   0.00000000000000E+00   0.00000000000000E+00
     -6.74456770741320E-17   3.50000000000000E-01   3.50000000000000E-01   0.00000000000000E+00   0.00000000000000E+00
      6.28651539307170E-11   5.08438906646959E-15   6.28702383197835E-11   1.36653767173896E-17   3.40000000000000E-01
      3.40000000000000E-01   0.00000000000000E+00   0.00000000000000E+00   0.00000000000000E+00   0.00000000000000E+00
      0.00000000000000E+00   6.91660846218756E-17
      2.40000000000000E-01
      0.00000000000000E+00   0.00000000000000E+00   0.00000000000000E+00   0.00000000000000E+00  -2.96854134671007E-13
     -5.91432179420571E-11  -5.94400720767281E-11  -1.54501130967639E-17   9.60000000000000E-02   9.60000000000000E-02
      0.00000000000000E+00   0.00000000000000E+00   0.00000000000000E+00   0.00000000000000E+00   0.00000000000000E+00
     -6.57417948052616E-17   3.50000000000000E-01   3.50000000000000E-01   0.00000000000000E+00   0.00000000000000E+00
      5.94350301120395E-11   5.04196468844222E-15   5.94400720767280E-11   1.36006232934529E-17   3.40000000000000E-01
      3.40000000000000E-01   0.00000000000000E+00   0.00000000000000E+00   0.00000000000000E+00   0.00000000000000E+00
      0.00000000000000E+00   6.75912846085726E-17
      2.55000000000000E-01
      0.00000000000000E+00   0.00000000000000E+00   0.00000000000000E+00   0.00000000000000E+00  -2.98949405297078E-13
     -5.60319225651673E-11  -5.63308719704643E-11  -1.55144314315455E-17   1.02000000000000E-01   1.02000000000000E-01
      0.00000000000000E+00   0.00000000000000E+00   0.00000000000000E+00   0.00000000000000E+00   0.00000000000000E+00
     -6.40379068594725E-17   3.50000000000000E-01   3.50000000000000E-01   0.00000000000000E+00   0.00000000000000E+00
      5.63258723542840E-11   4.99961618041085E-15   5.63308719704644E-11   1.35358480179120E-17   3.40000000000000E-01
      3.40000000000000E-01   0.00000000000000E+00   0.00000000000000E+00   0.00000000000000E+00   0.00000000000000E+00
      0.00000000000000E+00   6.60164902731060E-17
      2.70000000000000E-01
      0.00000000000000E+00   0.00000000000000E+00   0.00000000000000E+00   0.00000000000000E+00  -3.01046852518389E-13
     -5.32124857217485E-11  -5.35135325742669E-11  -1.55787395181290E-17   1.08000000000000E-01   1.08000000000000E-01
      0.00000000000000E+00   0.00000000000000E+00   0.00000000000000E+00   0.00000000000000E+00   0.00000000000000E+00
     -6.23340128098157E-17   3.50000000000000E-01   3.50000000000000E-01   0.00000000000000E+00   0.00000000000000E+00
      5.35085752300903E-11   4.95734417667675E-15   5.35135325742670E-11   1.34710502856083E-17   3.40000000000000E-01
      3.40000000000000E-01   0.00000000000000E+00   0.00000000000000E+00   0.00000000000000E+00   0.00000000000000E+00
      0.00000000000000E+00   6.44417020423364E-17
      2.85000000000000E-01
      0.00000000000000E+00   0.00000000000000E+00   0.00000000000000E+00   0.00000000000000E+00  -3.03146430773983E-13
     -5.06585681541934E-11  -5.09617145849674E-11  -1.56430375982348E-17   1.14000000000000E-01   1.14000000000000E-01
      0.00000000000000E+00   0.00000000000000E+00   0.00000000000000E+00   0.00000000000000E+00   0.00000000000000E+00
     -6.06301122231442E-17   3.50000000000000E-01   3.50000000000000E-01   0.00000000000000E+00   0.00000000000000E+00
      5.09567994356730E-11   4.91514929438716E-15   5.09617145849674E-11   1.34062294720448E-17   3.40000000000000E-01
      3.40000000000000E-01   0.00000000000000E+00   0.00000000000000E+00   0.00000000000000E+00   0.00000000000000E+00
      0.00000000000000E+00   6.28669203493343E-17
      3.00000000000000E-01
      0.00000000000000E+00   0.00000000000000E+00   0.00000000000000E+00   0.00000000000000E+00  -3.05248093254300E-13
     -4.83464083315154E-11  -4.86516564247697E-11  -1.57073259068709E-17   1.20000000000000E-01   1.20000000000000E-01
      0.00000000000000E+00   0.00000000000000E+00   0.00000000000000E+00   0.00000000000000E+00   0.00000000000000E+00
     -5.89262046596523E-17   3.50000000000000E-01   3.50000000000000E-01   0.00000000000000E+00   0.00000000000000E+00
      4.86467833926207E-11   4.87303214901769E-15   4.86516564247697E-11   1.33413849326850E-17   3.40000000000000E-01
      3.40000000000000E-01   0.00000000000000E+00   0.00000000000000E+00   0.00000000000000E+00   0.00000000000000E+00
      0.00000000000000E+00   6.12921456338382E-17
      3.15000000000000E-01
      0.00000000000000E+00   0.00000000000000E+00   0.00000000000000E+00   0.00000000000000E+00  -3.07351791686772E-13
     -4.62546442692124E-11  -4.65619960608992E-11  -1.57716046725435E-17   1.26000000000000E-01   1.26000000000000E-01
      0.00000000000000E+00   0.00000000000000E+00   0.00000000000000E+00   0.00000000000000E+00   0.00000000000000E+00
     -5.72222896724061E-17   3.50000000000000E-01   3.50000000000000E-01   0.00000000000000E+00   0.00000000000000E+00
      4.65571650675320E-11   4.83099336715119E-15   4.65619960608992E-11   1.32765160022257E-17   3.40000000000000E-01
      3.40000000000000E-01   0.00000000000000E+00   0.00000000000000E+00   0.00000000000000E+00   0.00000000000000E+00
      0.00000000000000E+00   5.97173783427239E-17
      3.30000000000000E-01
      0.00000000000000E+00   0.00000000000000E+00   0.00000000000000E+00   0.00000000000000E+00  -3.09457476091592E-13
     -4.43641455518903E-11  -4.46736030279819E-11  -1.58358741174609E-17   1.32000000000000E-01   1.32000000000000E-01
      0.00000000000000E+00   0.00000000000000E+00   0.00000000000000E+00   0.00000000000000E+00   0.00000000000000E+00
     -5.55183668068637E-17   3.50000000000000E-01   3.50000000000000E-01   0.00000000000000E+00   0.00000000000000E+00
      4.46688139943807E-11   4.78903360110495E-15   4.46736030279818E-11   1.32116219938414E-17   3.40000000000000E-01
      3.40000000000000E-01   0.00000000000000E+00   0.00000000000000E+00   0.00000000000000E+00   0.00000000000000E+00
      0.00000000000000E+00   5.81426189304833E-17
      3.45000000000000E-01
      0.00000000000000E+00   0.00000000000000E+00   0.00000000000000E+00   0.00000000000000E+00  -3.11565094497996E-13
     -4.26578555331817E-11  -4.29694206276797E-11  -1.59001344577294E-17   1.38000000000000E-01   1.38000000000000E-01
      0.00000000000000E+00   0.00000000000000E+00   0.00000000000000E+00   0.00000000000000E+00   0.00000000000000E+00
     -5.38144356003845E-17   3.50000000000000E-01   3.50000000000000E-01   0.00000000000000E+00   0.00000000000000E+00
      4.29646734741384E-11   4.74715354119899E-15   4.29694206276796E-11   1.31467021984001E-17   3.40000000000000E-01
      3.40000000000000E-01   0.00000000000000E+00   0.00000000000000E+00   0.00000000000000E+00   0.00000000000000E+00
      0.00000000000000E+00   5.65678678597137E-17
      3.60000000000000E-01
      0.00000000000000E+00   0.00000000000000E+00   0.00000000000000E+00   0.00000000000000E+00  -3.13674592622349E-13
     -4.11206436765215E-11  -4.14343182691438E-11  -1.59643859035430E-17   1.44000000000000E-01   1.44000000000000E-01
      0.00000000000000E+00   0.00000000000000E+00   0.00000000000000E+00   0.00000000000000E+00   0.00000000000000E+00
     -5.21104955817266E-17   3.50000000000000E-01   3.50000000000000E-01   0.00000000000000E+00   0.00000000000000E+00
      4.14296129152155E-11   4.70535392832904E-15   4.14343182691438E-11   1.30817558836497E-17   3.40000000000000E-01
      3.40000000000000E-01   0.00000000000000E+00   0.00000000000000E+00   0.00000000000000E+00   0.00000000000000E+00
      0.00000000000000E+00   5.49931256016199E-17
      3.75000000000000E-01
      0.00000000000000E+00   0.00000000000000E+00   0.00000000000000E+00   0.00000000000000E+00  -3.15785913502283E-13
     -3.97391679889811E-11  -4.00549539024834E-11  -1.60286286593670E-17   1.50000000000000E-01   1.50000000000000E-01
      0.00000000000000E+00   0.00000000000000E+00   0.00000000000000E+00   0.00000000000000E+00   0.00000000000000E+00
     -5.04065462705326E-17   3.50000000000000E-01   3.50000000000000E-01   0.00000000000000E+00   0.00000000000000E+00
      4.00502902669184E-11   4.66363556496237E-15   4.00549539024834E-11   1.30167822933723E-17   3.40000000000000E-01
      3.40000000000000E-01   0.00000000000000E+00   0.00000000000000E+00   0.00000000000000E+00   0.00000000000000E+00
      0.00000000000000E+00   5.34183926365274E-17
      3.90000000000000E-01
      0.00000000000000E+00   0.00000000000000E+00   0.00000000000000E+00   0.00000000000000E+00  -3.17898997078949E-13
     -3.85017474888287E-11  -3.88196464859077E-11  -1.60928629241145E-17   1.56000000000000E-01   1.56000000000000E-01
      0.00000000000000E+00   0.00000000000000E+00   0.00000000000000E+00   0.00000000000000E+00   0.00000000000000E+00
     -4.87025871768013E-17   3.50000000000000E-01   3.50000000000000E-01   0.00000000000000E+00   0.00000000000000E+00
      3.88150244865822E-11   4.62199932550409E-15   3.88196464859077E-11   1.29517806465065E-17   3.40000000000000E-01
      3.40000000000000E-01   0.00000000000000E+00   0.00000000000000E+00   0.00000000000000E+00   0.00000000000000E+00
      0.00000000000000E+00   5.18436694544094E-17
      4.05000000000000E-01
      0.00000000000000E+00   0.00000000000000E+00   0.00000000000000E+00   0.00000000000000E+00  -3.20013779727516E-13
     -3.73982446359548E-11  -3.77182584156823E-11  -1.61570888913176E-17   1.62000000000000E-01   1.62000000000000E-01
      0.00000000000000E+00   0.00000000000000E+00   0.00000000000000E+00   0.00000000000000E+00   0.00000000000000E+00
     -4.69986178003460E-17   3.50000000000000E-01   3.50000000000000E-01   0.00000000000000E+00   0.00000000000000E+00
      3.77136779695165E-11   4.58044616580411E-15   3.77182584156823E-11   1.28867501362354E-17   3.40000000000000E-01
      3.40000000000000E-01   0.00000000000000E+00   0.00000000000000E+00   0.00000000000000E+00   0.00000000000000E+00
      0.00000000000000E+00   5.02689565554282E-17
      4.20000000000000E-01
      0.00000000000000E+00   0.00000000000000E+00   0.00000000000000E+00   0.00000000000000E+00  -3.22130193723882E-13
     -3.64199576429704E-11  -3.67420878366943E-11  -1.62213067492922E-17   1.68000000000000E-01   1.68000000000000E-01
      0.00000000000000E+00   0.00000000000000E+00   0.00000000000000E+00   0.00000000000000E+00   0.00000000000000E+00
     -4.52946376302380E-17   3.50000000000000E-01   3.50000000000000E-01   0.00000000000000E+00   0.00000000000000E+00
      3.67375488595635E-11   4.53897713079667E-15   3.67420878366943E-11   1.28216899290398E-17   3.40000000000000E-01
      3.40000000000000E-01   0.00000000000000E+00   0.00000000000000E+00   0.00000000000000E+00   0.00000000000000E+00
      0.00000000000000E+00   4.86942544504904E-17
      4.35000000000000E-01
      0.00000000000000E+00   0.00000000000000E+00   0.00000000000000E+00   0.00000000000000E+00  -3.24248166644577E-13
     -3.55595225738123E-11  -3.58837707404569E-11  -1.62855166812979E-17   1.74000000000000E-01   1.74000000000000E-01
      0.00000000000000E+00   0.00000000000000E+00   0.00000000000000E+00   0.00000000000000E+00   0.00000000000000E+00
     -4.35906461442342E-17   3.50000000000000E-01   3.50000000000000E-01   0.00000000000000E+00   0.00000000000000E+00
      3.58792731470955E-11   4.49759336135814E-15   3.58837707404568E-11   1.27565991637136E-17   3.40000000000000E-01
      3.40000000000000E-01   0.00000000000000E+00   0.00000000000000E+00   0.00000000000000E+00   0.00000000000000E+00
      0.00000000000000E+00   4.71195636618185E-17
      4.50000000000000E-01
      0.00000000000000E+00   0.00000000000000E+00   0.00000000000000E+00   0.00000000000000E+00  -3.26367620691104E-13
     -3.48108251262194E-11  -3.51371927469105E-11  -1.63497188656917E-17   1.80000000000000E-01   1.80000000000000E-01
      0.00000000000000E+00   0.00000000000000E+00   0.00000000000000E+00   0.00000000000000E+00   0.00000000000000E+00
     -4.18866428081886E-17   3.50000000000000E-01   3.50000000000000E-01   0.00000000000000E+00   0.00000000000000E+00
      3.51327364508112E-11   4.45629609936009E-15   3.51371927469105E-11   1.26914769503419E-17   3.40000000000000E-01
      3.40000000000000E-01   0.00000000000000E+00   0.00000000000000E+00   0.00000000000000E+00   0.00000000000000E+00
      0.00000000000000E+00   4.55448847235384E-17
      4.65000000000000E-01
      0.00000000000000E+00   0.00000000000000E+00   0.00000000000000E+00   0.00000000000000E+00  -3.28488471930286E-13
     -3.41689219846441E-11  -3.44974104565744E-11  -1.64139134760771E-17   1.86000000000000E-01   1.86000000000000E-01
      0.00000000000000E+00   0.00000000000000E+00   0.00000000000000E+00   0.00000000000000E+00   0.00000000000000E+00
     -4.01826270754456E-17   3.50000000000000E-01   3.50000000000000E-01   0.00000000000000E+00   0.00000000000000E+00
      3.44929953698830E-11   4.41508669144440E-15   3.44974104565745E-11   1.26263223692378E-17   3.40000000000000E-01
      3.40000000000000E-01   0.00000000000000E+00   0.00000000000000E+00   0.00000000000000E+00   0.00000000000000E+00
      0.00000000000000E+00   4.39702181822849E-17
      4.80000000000000E-01
      0.00000000000000E+00   0.00000000000000E+00   0.00000000000000E+00   0.00000000000000E+00  -3.30610629441972E-13
     -3.36299716211309E-11  -3.39605822505729E-11  -1.64781006814483E-17   1.92000000000000E-01   1.92000000000000E-01
      0.00000000000000E+00   0.00000000000000E+00   0.00000000000000E+00   0.00000000000000E+00   0.00000000000000E+00
     -3.84785983862156E-17   3.50000000000000E-01   3.50000000000000E-01   0.00000000000000E+00   0.00000000000000E+00
      3.39562082839815E-11   4.37396659141292E-15   3.39605822505729E-11   1.25611344698384E-17   3.40000000000000E-01
      3.40000000000000E-01   0.00000000000000E+00   0.00000000000000E+00   0.00000000000000E+00   0.00000000000000E+00
      0.00000000000000E+00   4.23955645978255E-17
      4.95000000000000E-01
      0.00000000000000E+00   0.00000000000000E+00   0.00000000000000E+00   0.00000000000000E+00  -3.32733994362140E-13
     -3.31911744135721E-11  -3.35239084079343E-11  -1.65422806463288E-17   1.98000000000000E-01   1.98000000000000E-01
      0.00000000000000E+00   0.00000000000000E+00   0.00000000000000E+00   0.00000000000000E+00   0.00000000000000E+00
     -3.67745561669309E-17   3.50000000000000E-01   3.50000000000000E-01   0.00000000000000E+00   0.00000000000000E+00
      3.35195754705736E-11   4.33293736066405E-15   3.35239084079343E-11   1.24959122695571E-17   3.40000000000000E-01
      3.40000000000000E-01   0.00000000000000E+00   0.00000000000000E+00   0.00000000000000E+00   0.00000000000000E+00
      0.00000000000000E+00   4.08209245437027E-17
      5.10000000000000E-01
      0.00000000000000E+00   0.00000000000000E+00   0.00000000000000E+00   0.00000000000000E+00  -3.34858458814782E-13
     -3.28507219436266E-11  -3.31855804024414E-11  -1.66064535309061E-17   2.04000000000000E-01   2.04000000000000E-01
      0.00000000000000E+00   0.00000000000000E+00   0.00000000000000E+00   0.00000000000000E+00   0.00000000000000E+00
     -3.50704998295811E-17   3.50000000000000E-01   3.50000000000000E-01   0.00000000000000E+00   0.00000000000000E+00
      3.31812884017738E-11   4.29200066762938E-15   3.31855804024414E-11   1.24306547525893E-17   3.40000000000000E-01
      3.40000000000000E-01   0.00000000000000E+00   0.00000000000000E+00   0.00000000000000E+00   0.00000000000000E+00
      0.00000000000000E+00   3.92462986078979E-17
      5.25000000000000E-01
      0.00000000000000E+00   0.00000000000000E+00   0.00000000000000E+00   0.00000000000000E+00  -3.36983904714729E-13
     -3.26077553305571E-11  -3.29447392352718E-11  -1.66706194911617E-17   2.10000000000000E-01   2.10000000000000E-01
      0.00000000000000E+00   0.00000000000000E+00   0.00000000000000E+00   0.00000000000000E+00   0.00000000000000E+00
     -3.33664287710267E-17   3.50000000000000E-01   3.50000000000000E-01   0.00000000000000E+00   0.00000000000000E+00
      3.29404880769863E-11   4.25115828555101E-15   3.29447392352718E-11   1.23653608686727E-17   3.40000000000000E-01
      3.40000000000000E-01   0.00000000000000E+00   0.00000000000000E+00   0.00000000000000E+00   0.00000000000000E+00
      0.00000000000000E+00   3.76716873935157E-17
      5.40000000000000E-01
      0.00000000000000E+00   0.00000000000000E+00   0.00000000000000E+00   0.00000000000000E+00  -3.39110202433203E-13
     -3.24623324523605E-11  -3.28014426547937E-11  -1.67347786789963E-17   2.16000000000000E-01   2.16000000000000E-01
      0.00000000000000E+00   0.00000000000000E+00   0.00000000000000E+00   0.00000000000000E+00   0.00000000000000E+00
     -3.16623423722908E-17   3.50000000000000E-01   3.50000000000000E-01   0.00000000000000E+00   0.00000000000000E+00
      3.27972322427049E-11   4.21041208882302E-15   3.28014426547937E-11   1.23000295317958E-17   3.40000000000000E-01
      3.40000000000000E-01   0.00000000000000E+00   0.00000000000000E+00   0.00000000000000E+00   0.00000000000000E+00
      0.00000000000000E+00   3.60970915194913E-17
      5.55000000000000E-01
      0.00000000000000E+00   0.00000000000000E+00   0.00000000000000E+00   0.00000000000000E+00  -3.41237209309528E-13