DF-ISE text

Info {
  version   = 1.0
  type      = xyplot
  datasets  = [
    "time"
    "source OuterVoltage" "source InnerVoltage" "source QuasiFermiPotential" "source DisplacementCurrent" "source eCurrent"
    "source hCurrent" "source TotalCurrent" "source Charge" "topGate OuterVoltage" "topGate InnerVoltage"
    "topGate QuasiFermiPotential" "topGate DisplacementCurrent" "topGate eCurrent" "topGate hCurrent" "topGate TotalCurrent"
    "topGate Charge" "drain OuterVoltage" "drain InnerVoltage" "drain QuasiFermiPotential" "drain DisplacementCurrent"
    "drain eCurrent" "drain hCurrent" "drain TotalCurrent" "drain Charge" "bottomGate OuterVoltage"
    "bottomGate InnerVoltage" "bottomGate QuasiFermiPotential" "bottomGate DisplacementCurrent" "bottomGate eCurrent" "bottomGate hCurrent"
    "bottomGate TotalCurrent" "bottomGate Charge" ]
  functions = [
    Time
    OuterVoltage InnerVoltage QuasiFermiPotential DisplacementCurrent eCurrent
    hCurrent TotalCurrent Charge OuterVoltage InnerVoltage
    QuasiFermiPotential DisplacementCurrent eCurrent hCurrent TotalCurrent
    Charge OuterVoltage InnerVoltage QuasiFermiPotential DisplacementCurrent
    eCurrent hCurrent TotalCurrent Charge OuterVoltage
    InnerVoltage QuasiFermiPotential DisplacementCurrent eCurrent hCurrent
    TotalCurrent Charge ]
}

Data {
      1.50000000000000E-02
      0.00000000000000E+00   0.00000000000000E+00   0.00000000000000E+00   0.00000000000000E+00  -5.81694672972170E-14
     -1.45662798510465E-10  -1.45720967977763E-10  -5.91873645629127E-18   6.00000000000000E-03   6.00000000000000E-03
      0.00000000000000E+00   0.00000000000000E+00   0.00000000000000E+00   0.00000000000000E+00   0.00000000000000E+00
      4.47559020853303E-17   1.40000000000000E-01   1.40000000000000E-01   0.00000000000000E+00   0.00000000000000E+00
      1.45713659412478E-10   7.30856528459039E-15   1.45720967977763E-10   1.80492429188172E-17   1.00000000000000E-01
      1.00000000000000E-01   0.00000000000000E+00   0.00000000000000E+00   0.00000000000000E+00   0.00000000000000E+00
      0.00000000000000E+00  -5.68864085478563E-17
      3.00000000000000E-02
      0.00000000000000E+00   0.00000000000000E+00   0.00000000000000E+00   0.00000000000000E+00  -5.92744713647931E-14
     -1.45984570433091E-10  -1.46043844904456E-10  -6.00433379886104E-18   1.20000000000000E-02   1.20000000000000E-02
      0.00000000000000E+00   0.00000000000000E+00   0.00000000000000E+00   0.00000000000000E+00   0.00000000000000E+00
      4.64726035609824E-17   1.40000000000000E-01   1.40000000000000E-01   0.00000000000000E+00   0.00000000000000E+00
      1.46036498339753E-10   7.34656470291848E-15   1.46043844904456E-10   1.79798950087928E-17   1.00000000000000E-01
      1.00000000000000E-01   0.00000000000000E+00   0.00000000000000E+00   0.00000000000000E+00   0.00000000000000E+00
      0.00000000000000E+00  -5.84481647709142E-17
      4.50000000000000E-02
      0.00000000000000E+00   0.00000000000000E+00   0.00000000000000E+00   0.00000000000000E+00  -6.03883235733720E-14
     -1.46517315503640E-10  -1.46577703827213E-10  -6.08924265439845E-18   1.80000000000000E-02   1.80000000000000E-02
      0.00000000000000E+00   0.00000000000000E+00   0.00000000000000E+00   0.00000000000000E+00   0.00000000000000E+00
      4.81887063794441E-17   1.40000000000000E-01   1.40000000000000E-01   0.00000000000000E+00   0.00000000000000E+00
      1.46570328476075E-10   7.37535113853101E-15   1.46577703827213E-10   1.79110695369575E-17   1.00000000000000E-01
      1.00000000000000E-01   0.00000000000000E+00   0.00000000000000E+00   0.00000000000000E+00   0.00000000000000E+00
      0.00000000000000E+00  -6.00105332620032E-17
      6.00000000000000E-02
      0.00000000000000E+00   0.00000000000000E+00   0.00000000000000E+00   0.00000000000000E+00  -6.15113199005668E-14
     -1.47254830563937E-10  -1.47316341883838E-10  -6.17348339809298E-18   2.40000000000000E-02   2.40000000000000E-02
      0.00000000000000E+00   0.00000000000000E+00   0.00000000000000E+00   0.00000000000000E+00   0.00000000000000E+00
      4.99042470649152E-17   1.40000000000000E-01   1.40000000000000E-01   0.00000000000000E+00   0.00000000000000E+00
      1.47308945950710E-10   7.39593312812054E-15   1.47316341883838E-10   1.78427133542982E-17   1.00000000000000E-01
      1.00000000000000E-01   0.00000000000000E+00   0.00000000000000E+00   0.00000000000000E+00   0.00000000000000E+00
      0.00000000000000E+00  -6.15734770211204E-17
      7.50000000000000E-02
      0.00000000000000E+00   0.00000000000000E+00   0.00000000000000E+00   0.00000000000000E+00  -6.26437308237061E-14
     -1.48191600033929E-10  -1.48254243764753E-10  -6.25707602682298E-18   3.00000000000000E-02   3.00000000000000E-02
      0.00000000000000E+00   0.00000000000000E+00   0.00000000000000E+00   0.00000000000000E+00   0.00000000000000E+00
      5.16192592338279E-17   1.40000000000000E-01   1.40000000000000E-01   0.00000000000000E+00   0.00000000000000E+00
      1.48246834520370E-10   7.40924438382850E-15   1.48254243764753E-10   1.77747787051817E-17   1.00000000000000E-01
      1.00000000000000E-01   0.00000000000000E+00   0.00000000000000E+00   0.00000000000000E+00   0.00000000000000E+00
      0.00000000000000E+00  -6.31369619121866E-17
      9.00000000000000E-02
      0.00000000000000E+00   0.00000000000000E+00   0.00000000000000E+00   0.00000000000000E+00  -6.37858008249500E-14
     -1.49322756447691E-10  -1.49386542248516E-10  -6.34004014085119E-18   3.60000000000000E-02   3.60000000000000E-02
      0.00000000000000E+00   0.00000000000000E+00   0.00000000000000E+00   0.00000000000000E+00   0.00000000000000E+00
      5.33337738687011E-17   1.40000000000000E-01   1.40000000000000E-01   0.00000000000000E+00   0.00000000000000E+00
      1.49379126298469E-10   7.41595004782931E-15   1.49386542248517E-10   1.77072226754375E-17   1.00000000000000E-01
      1.00000000000000E-01   0.00000000000000E+00   0.00000000000000E+00   0.00000000000000E+00   0.00000000000000E+00
      0.00000000000000E+00  -6.47009564032874E-17
      1.05000000000000E-01
      0.00000000000000E+00   0.00000000000000E+00   0.00000000000000E+00   0.00000000000000E+00  -6.49377478694131E-14
     -1.50644044969687E-10  -1.50708982717556E-10  -6.42239492908515E-18   4.20000000000000E-02   4.20000000000000E-02
      0.00000000000000E+00   0.00000000000000E+00   0.00000000000000E+00   0.00000000000000E+00   0.00000000000000E+00
      5.50478195643794E-17   1.40000000000000E-01   1.40000000000000E-01   0.00000000000000E+00   0.00000000000000E+00
      1.50701565872351E-10   7.41684520479906E-15   1.50708982717556E-10   1.76400066967730E-17   1.00000000000000E-01
      1.00000000000000E-01   0.00000000000000E+00   0.00000000000000E+00   0.00000000000000E+00   0.00000000000000E+00
      0.00000000000000E+00  -6.62654313320672E-17
      1.20000000000000E-01
      0.00000000000000E+00   0.00000000000000E+00   0.00000000000000E+00   0.00000000000000E+00  -6.60997628788644E-14
     -1.52151790490615E-10  -1.52217890253494E-10  -6.50415915751261E-18   4.80000000000000E-02   4.80000000000000E-02
      0.00000000000000E+00   0.00000000000000E+00   0.00000000000000E+00   0.00000000000000E+00   0.00000000000000E+00
      5.67614227494720E-17   1.40000000000000E-01   1.40000000000000E-01   0.00000000000000E+00   0.00000000000000E+00
      1.52210477695937E-10   7.41255755700853E-15   1.52217890253494E-10   1.75730961018630E-17   1.00000000000000E-01
      1.00000000000000E-01   0.00000000000000E+00   0.00000000000000E+00   0.00000000000000E+00   0.00000000000000E+00
      0.00000000000000E+00  -6.78303596938224E-17
      1.35000000000000E-01
      0.00000000000000E+00   0.00000000000000E+00   0.00000000000000E+00   0.00000000000000E+00  -6.72720092339488E-14
     -1.53842868268994E-10  -1.53910140278227E-10  -6.58535116045820E-18   5.40000000000000E-02   5.40000000000000E-02
      0.00000000000000E+00   0.00000000000000E+00   0.00000000000000E+00   0.00000000000000E+00   0.00000000000000E+00
      5.84746078855298E-17   1.40000000000000E-01   1.40000000000000E-01   0.00000000000000E+00   0.00000000000000E+00
      1.53902736663112E-10   7.40361511547064E-15   1.53910140278228E-10   1.75064597249978E-17   1.00000000000000E-01
      1.00000000000000E-01   0.00000000000000E+00   0.00000000000000E+00   0.00000000000000E+00   0.00000000000000E+00
      0.00000000000000E+00  -6.93957164500694E-17
      1.50000000000000E-01
      0.00000000000000E+00   0.00000000000000E+00   0.00000000000000E+00   0.00000000000000E+00  -6.84546223466196E-14
     -1.55714677751756E-10  -1.55783132374103E-10  -6.66598883434018E-18   6.00000000000000E-02   6.00000000000000E-02
      0.00000000000000E+00   0.00000000000000E+00   0.00000000000000E+00   0.00000000000000E+00   0.00000000000000E+00
      6.01873976462422E-17   1.40000000000000E-01   1.40000000000000E-01   0.00000000000000E+00   0.00000000000000E+00
      1.55775741787321E-10   7.39058678132129E-15   1.55783132374103E-10   1.74400695436719E-17   1.00000000000000E-01
      1.00000000000000E-01   0.00000000000000E+00   0.00000000000000E+00   0.00000000000000E+00   0.00000000000000E+00
      0.00000000000000E+00  -7.09614783555739E-17
      1.65000000000000E-01
      0.00000000000000E+00   0.00000000000000E+00   0.00000000000000E+00   0.00000000000000E+00  -6.96477093509459E-14
     -1.57765119113943E-10  -1.57834766823294E-10  -6.74608963363665E-18   6.60000000000000E-02   6.60000000000000E-02
      0.00000000000000E+00   0.00000000000000E+00   0.00000000000000E+00   0.00000000000000E+00   0.00000000000000E+00
      6.18998130787092E-17   1.40000000000000E-01   1.40000000000000E-01   0.00000000000000E+00   0.00000000000000E+00
      1.57827392935098E-10   7.37388819581173E-15   1.57834766823294E-10   1.73739003569467E-17   1.00000000000000E-01
      1.00000000000000E-01   0.00000000000000E+00   0.00000000000000E+00   0.00000000000000E+00   0.00000000000000E+00
      0.00000000000000E+00  -7.25276238020192E-17
      1.80000000000000E-01
      0.00000000000000E+00   0.00000000000000E+00   0.00000000000000E+00   0.00000000000000E+00  -7.08513489641547E-14
     -1.59992573183569E-10  -1.60063424532533E-10  -6.82567056879880E-18   7.20000000000000E-02   7.20000000000000E-02
      0.00000000000000E+00   0.00000000000000E+00   0.00000000000000E+00   0.00000000000000E+00   0.00000000000000E+00
      6.36118737486351E-17   1.40000000000000E-01   1.40000000000000E-01   0.00000000000000E+00   0.00000000000000E+00
      1.60056070585482E-10   7.35394705116343E-15   1.60063424532533E-10   1.73079294968347E-17   1.00000000000000E-01
      1.00000000000000E-01   0.00000000000000E+00   0.00000000000000E+00   0.00000000000000E+00   0.00000000000000E+00
      0.00000000000000E+00  -7.40941326766710E-17
      1.95000000000000E-01
      0.00000000000000E+00   0.00000000000000E+00   0.00000000000000E+00   0.00000000000000E+00  -7.20655915702387E-14
     -1.62395884165031E-10  -1.62467949756601E-10  -6.90474820587466E-18   7.80000000000000E-02   7.80000000000000E-02
      0.00000000000000E+00   0.00000000000000E+00   0.00000000000000E+00   0.00000000000000E+00   0.00000000000000E+00
      6.53235978711015E-17   1.40000000000000E-01   1.40000000000000E-01   0.00000000000000E+00   0.00000000000000E+00
      1.62460618613287E-10   7.33114331399739E-15   1.62467949756601E-10   1.72421365693241E-17   1.00000000000000E-01
      1.00000000000000E-01   0.00000000000000E+00   0.00000000000000E+00   0.00000000000000E+00   0.00000000000000E+00
      0.00000000000000E+00  -7.56609862345509E-17
      2.10000000000000E-01
      0.00000000000000E+00   0.00000000000000E+00   0.00000000000000E+00   0.00000000000000E+00  -7.32904595756352E-14
     -1.64974345445895E-10  -1.65047635905470E-10  -6.98333866763007E-18   8.40000000000000E-02   8.40000000000000E-02
      0.00000000000000E+00   0.00000000000000E+00   0.00000000000000E+00   0.00000000000000E+00   0.00000000000000E+00
      6.70350024284059E-17   1.40000000000000E-01   1.40000000000000E-01   0.00000000000000E+00   0.00000000000000E+00
      1.65040330121816E-10   7.30578365370429E-15   1.65047635905470E-10   1.71765032220055E-17   1.00000000000000E-01
      1.00000000000000E-01   0.00000000000000E+00   0.00000000000000E+00   0.00000000000000E+00   0.00000000000000E+00
      0.00000000000000E+00  -7.72281669827813E-17
      2.25000000000000E-01
      0.00000000000000E+00   0.00000000000000E+00   0.00000000000000E+00   0.00000000000000E+00  -7.45259480804368E-14
     -1.67727688600286E-10  -1.67802214548366E-10  -7.06145763597575E-18   9.00000000000000E-02   9.00000000000000E-02
      0.00000000000000E+00   0.00000000000000E+00   0.00000000000000E+00   0.00000000000000E+00   0.00000000000000E+00
      6.87461032763043E-17   1.40000000000000E-01   1.40000000000000E-01   0.00000000000000E+00   0.00000000000000E+00
      1.67794936379829E-10   7.27816853757878E-15   1.67802214548366E-10   1.71110129355657E-17   1.00000000000000E-01
      1.00000000000000E-01   0.00000000000000E+00   0.00000000000000E+00   0.00000000000000E+00   0.00000000000000E+00
      0.00000000000000E+00  -7.87956585758943E-17
      2.40000000000000E-01
      0.00000000000000E+00   0.00000000000000E+00   0.00000000000000E+00   0.00000000000000E+00  -7.57720258995477E-14
     -1.70656075491867E-10  -1.70731847517767E-10  -7.13912035552834E-18   9.60000000000000E-02   9.60000000000000E-02
      0.00000000000000E+00   0.00000000000000E+00   0.00000000000000E+00   0.00000000000000E+00   0.00000000000000E+00
      7.04569152398495E-17   1.40000000000000E-01   1.40000000000000E-01   0.00000000000000E+00   0.00000000000000E+00
      1.70724598948241E-10   7.24856952627546E-15   1.70731847517767E-10   1.70456508366938E-17   1.00000000000000E-01
      1.00000000000000E-01   0.00000000000000E+00   0.00000000000000E+00   0.00000000000000E+00   0.00000000000000E+00
      0.00000000000000E+00  -8.03634457210150E-17
      2.55000000000000E-01
      0.00000000000000E+00   0.00000000000000E+00   0.00000000000000E+00   0.00000000000000E+00  -7.70286369567314E-14
     -1.73760093667308E-10  -1.73837122304265E-10  -7.21634163815167E-18   1.02000000000000E-01   1.02000000000000E-01
      0.00000000000000E+00   0.00000000000000E+00   0.00000000000000E+00   0.00000000000000E+00   0.00000000000000E+00
      7.21674521999022E-17   1.40000000000000E-01   1.40000000000000E-01   0.00000000000000E+00   0.00000000000000E+00
      1.73829905114286E-10   7.21718997904077E-15   1.73837122304265E-10   1.69804035301927E-17   1.00000000000000E-01
      1.00000000000000E-01   0.00000000000000E+00   0.00000000000000E+00   0.00000000000000E+00   0.00000000000000E+00
      0.00000000000000E+00  -8.19315140919433E-17
      2.70000000000000E-01
      0.00000000000000E+00   0.00000000000000E+00   0.00000000000000E+00   0.00000000000000E+00  -7.82957020611276E-14
     -1.77040755332105E-10  -1.77119051034166E-10  -7.29313586834039E-18   1.08000000000000E-01   1.08000000000000E-01
      0.00000000000000E+00   0.00000000000000E+00   0.00000000000000E+00   0.00000000000000E+00   0.00000000000000E+00
      7.38777271712728E-17   1.40000000000000E-01   1.40000000000000E-01   0.00000000000000E+00   0.00000000000000E+00
      1.77111866784806E-10   7.18424935959013E-15   1.77119051034166E-10   1.69152589483165E-17   1.00000000000000E-01
      1.00000000000000E-01   0.00000000000000E+00   0.00000000000000E+00   0.00000000000000E+00   0.00000000000000E+00
      0.00000000000000E+00  -8.34998502512489E-17
      2.85000000000000E-01
      0.00000000000000E+00   0.00000000000000E+00   0.00000000000000E+00   0.00000000000000E+00  -7.95731210613288E-14
     -1.80499499837344E-10  -1.80579072958405E-10  -7.36951700932300E-18   1.14000000000000E-01   1.14000000000000E-01
      0.00000000000000E+00   0.00000000000000E+00   0.00000000000000E+00   0.00000000000000E+00   0.00000000000000E+00
      7.55877523733553E-17   1.40000000000000E-01   1.40000000000000E-01   0.00000000000000E+00   0.00000000000000E+00
      1.80571923026237E-10   7.14993216854110E-15   1.80579072958405E-10   1.68502062155562E-17   1.00000000000000E-01
      1.00000000000000E-01   0.00000000000000E+00   0.00000000000000E+00   0.00000000000000E+00   0.00000000000000E+00
      0.00000000000000E+00  -8.50684415795885E-17
      3.00000000000000E-01
      0.00000000000000E+00   0.00000000000000E+00   0.00000000000000E+00   0.00000000000000E+00  -8.08607753572725E-14
     -1.84138200090453E-10  -1.84219060865810E-10  -7.44549860977411E-18   1.20000000000000E-01   1.20000000000000E-01
      0.00000000000000E+00   0.00000000000000E+00   0.00000000000000E+00   0.00000000000000E+00   0.00000000000000E+00
      7.72975392940261E-17   1.40000000000000E-01   1.40000000000000E-01   0.00000000000000E+00   0.00000000000000E+00
      1.84211946477233E-10   7.11438857728711E-15   1.84219060865810E-10   1.67852355272784E-17   1.00000000000000E-01
      1.00000000000000E-01   0.00000000000000E+00   0.00000000000000E+00   0.00000000000000E+00   0.00000000000000E+00
      0.00000000000000E+00  -8.66372762115304E-17
      3.15000000000000E-01
      0.00000000000000E+00   0.00000000000000E+00   0.00000000000000E+00   0.00000000000000E+00  -8.21585307357547E-14
     -1.87959173149804E-10  -1.88041331680539E-10  -7.52109381103842E-18   1.26000000000000E-01   1.26000000000000E-01
      0.00000000000000E+00   0.00000000000000E+00   0.00000000000000E+00   0.00000000000000E+00   0.00000000000000E+00
      7.90070987474947E-17   1.40000000000000E-01   1.40000000000000E-01   0.00000000000000E+00   0.00000000000000E+00
      1.88034253901243E-10   7.07777929580003E-15   1.88041331680539E-10   1.67203380407881E-17   1.00000000000000E-01
      1.00000000000000E-01   0.00000000000000E+00   0.00000000000000E+00   0.00000000000000E+00   0.00000000000000E+00
      0.00000000000000E+00  -8.82063429772444E-17
      3.30000000000000E-01
      0.00000000000000E+00   0.00000000000000E+00   0.00000000000000E+00   0.00000000000000E+00  -8.34662404820661E-14
     -1.91965195186107E-10  -1.92048661426590E-10  -7.59631535477902E-18   1.32000000000000E-01   1.32000000000000E-01
      0.00000000000000E+00   0.00000000000000E+00   0.00000000000000E+00   0.00000000000000E+00   0.00000000000000E+00
      8.07164409267275E-17   1.40000000000000E-01   1.40000000000000E-01   0.00000000000000E+00   0.00000000000000E+00
      1.92041621191625E-10   7.04023496467706E-15   1.92048661426590E-10   1.66555057775312E-17   1.00000000000000E-01
      1.00000000000000E-01   0.00000000000000E+00   0.00000000000000E+00   0.00000000000000E+00   0.00000000000000E+00
      0.00000000000000E+00  -8.97756313494797E-17
      3.45000000000000E-01
      0.00000000000000E+00   0.00000000000000E+00   0.00000000000000E+00   0.00000000000000E+00  -8.47837487087202E-14
     -1.96159521279414E-10  -1.96244305028123E-10  -7.67117559097255E-18   1.38000000000000E-01   1.38000000000000E-01
      0.00000000000000E+00   0.00000000000000E+00   0.00000000000000E+00   0.00000000000000E+00   0.00000000000000E+00
      8.24255754509965E-17   1.40000000000000E-01   1.40000000000000E-01   0.00000000000000E+00   0.00000000000000E+00
      1.96237303192044E-10   7.00183607860708E-15   1.96244305028123E-10   1.65907315352876E-17   1.00000000000000E-01
      1.00000000000000E-01   0.00000000000000E+00   0.00000000000000E+00   0.00000000000000E+00   0.00000000000000E+00
      0.00000000000000E+00  -9.13451313953116E-17
      3.60000000000000E-01
      0.00000000000000E+00   0.00000000000000E+00   0.00000000000000E+00   0.00000000000000E+00  -8.61108938330771E-14
     -2.00545910575934E-10  -2.00632021469767E-10  -7.74568648618284E-18   1.44000000000000E-01   1.44000000000000E-01
      0.00000000000000E+00   0.00000000000000E+00   0.00000000000000E+00   0.00000000000000E+00   0.00000000000000E+00
      8.41345114090487E-17   1.40000000000000E-01   1.40000000000000E-01   0.00000000000000E+00   0.00000000000000E+00
      2.00625058751243E-10   6.96271852386466E-15   2.00632021469767E-10   1.65260088093234E-17   1.00000000000000E-01
      1.00000000000000E-01   0.00000000000000E+00   0.00000000000000E+00   0.00000000000000E+00   0.00000000000000E+00
      0.00000000000000E+00  -9.29148337321892E-17
      3.75000000000000E-01
      0.00000000000000E+00   0.00000000000000E+00   0.00000000000000E+00   0.00000000000000E+00  -8.74475121289996E-14
     -2.05128656923005E-10  -2.05216104435134E-10  -7.81985963205158E-18   1.50000000000000E-01   1.50000000000000E-01
      0.00000000000000E+00   0.00000000000000E+00   0.00000000000000E+00   0.00000000000000E+00   0.00000000000000E+00
      8.58432573983395E-17   1.40000000000000E-01   1.40000000000000E-01   0.00000000000000E+00   0.00000000000000E+00
      2.05209181495166E-10   6.92293996805561E-15   2.05216104435134E-10   1.64613317215775E-17   1.00000000000000E-01
      1.00000000000000E-01   0.00000000000000E+00   0.00000000000000E+00   0.00000000000000E+00   0.00000000000000E+00
      0.00000000000000E+00  -9.44847294878654E-17
      3.90000000000000E-01
      0.00000000000000E+00   0.00000000000000E+00   0.00000000000000E+00   0.00000000000000E+00  -8.87934412742330E-14
     -2.09912626036718E-10  -2.10001419477993E-10  -7.89370625395263E-18   1.56000000000000E-01   1.56000000000000E-01
      0.00000000000000E+00   0.00000000000000E+00   0.00000000000000E+00   0.00000000000000E+00   0.00000000000000E+00
      8.75518215607286E-17   1.40000000000000E-01   1.40000000000000E-01   0.00000000000000E+00   0.00000000000000E+00
      2.09994536872683E-10   6.88260530933779E-15   2.10001419477993E-10   1.63966949570537E-17   1.00000000000000E-01
      1.00000000000000E-01   0.00000000000000E+00   0.00000000000000E+00   0.00000000000000E+00   0.00000000000000E+00
      0.00000000000000E+00  -9.60548102638296E-17
      4.05000000000000E-01
      0.00000000000000E+00   0.00000000000000E+00   0.00000000000000E+00   0.00000000000000E+00  -9.01485238144166E-14
     -2.14903299354669E-10  -2.14993447878483E-10  -7.96723721976214E-18   1.62000000000000E-01   1.62000000000000E-01
      0.00000000000000E+00   0.00000000000000E+00   0.00000000000000E+00   0.00000000000000E+00   0.00000000000000E+00
      8.92602116149920E-17   1.40000000000000E-01   1.40000000000000E-01   0.00000000000000E+00   0.00000000000000E+00
      2.14986606115461E-10   6.84176302239990E-15   2.14993447878483E-10   1.63320937066766E-17   1.00000000000000E-01
      1.00000000000000E-01   0.00000000000000E+00   0.00000000000000E+00   0.00000000000000E+00   0.00000000000000E+00
      0.00000000000000E+00  -9.76250681019065E-17
      4.20000000000000E-01
      0.00000000000000E+00   0.00000000000000E+00   0.00000000000000E+00   0.00000000000000E+00  -9.15126104670726E-14
     -2.20106825725118E-10  -2.20198338335585E-10  -8.04046304870256E-18   1.68000000000000E-01   1.68000000000000E-01
      0.00000000000000E+00   0.00000000000000E+00   0.00000000000000E+00   0.00000000000000E+00   0.00000000000000E+00
      9.09684348864703E-17   1.40000000000000E-01   1.40000000000000E-01   0.00000000000000E+00   0.00000000000000E+00
      2.20191537849960E-10   6.80048562564582E-15   2.20198338335586E-10   1.62675236159435E-17   1.00000000000000E-01
      1.00000000000000E-01   0.00000000000000E+00   0.00000000000000E+00   0.00000000000000E+00   0.00000000000000E+00
      0.00000000000000E+00  -9.91954954537113E-17
      4.35000000000000E-01
      0.00000000000000E+00   0.00000000000000E+00   0.00000000000000E+00   0.00000000000000E+00  -9.28855631938207E-14
     -2.25530081471000E-10  -2.25622967034194E-10  -8.11339392022361E-18   1.74000000000000E-01   1.74000000000000E-01
      0.00000000000000E+00   0.00000000000000E+00   0.00000000000000E+00   0.00000000000000E+00   0.00000000000000E+00
      9.26764983341380E-17   1.40000000000000E-01   1.40000000000000E-01   0.00000000000000E+00   0.00000000000000E+00
      2.25616208212132E-10   6.75882206098515E-15   2.25622967034193E-10   1.62029807387776E-17   1.00000000000000E-01
      1.00000000000000E-01   0.00000000000000E+00   0.00000000000000E+00   0.00000000000000E+00   0.00000000000000E+00
      0.00000000000000E+00  -1.00766085152692E-16
      4.50000000000000E-01
      0.00000000000000E+00   0.00000000000000E+00   0.00000000000000E+00   0.00000000000000E+00  -9.42672579765865E-14
     -2.31180739998838E-10  -2.31275007256815E-10  -8.18603968288793E-18   1.80000000000000E-01   1.80000000000000E-01
      0.00000000000000E+00   0.00000000000000E+00   0.00000000000000E+00   0.00000000000000E+00   0.00000000000000E+00
      9.43844085753484E-17   1.40000000000000E-01   1.40000000000000E-01   0.00000000000000E+00   0.00000000000000E+00
      2.31268290445185E-10   6.71681162999907E-15   2.31275007256815E-10   1.61384614960451E-17   1.00000000000000E-01
      1.00000000000000E-01   0.00000000000000E+00   0.00000000000000E+00   0.00000000000000E+00   0.00000000000000E+00
      0.00000000000000E+00  -1.02336830388506E-16
      4.65000000000000E-01
      0.00000000000000E+00   0.00000000000000E+00   0.00000000000000E+00   0.00000000000000E+00  -9.56575872429011E-14
     -2.37067352028669E-10  -2.37163009615912E-10  -8.25840986323286E-18   1.86000000000000E-01   1.86000000000000E-01
      0.00000000000000E+00   0.00000000000000E+00   0.00000000000000E+00   0.00000000000000E+00   0.00000000000000E+00
      9.60921719084851E-17   1.40000000000000E-01   1.40000000000000E-01   0.00000000000000E+00   0.00000000000000E+00
      2.37156335109902E-10   6.67450601001563E-15   2.37163009615912E-10   1.60739626382593E-17   1.00000000000000E-01
      1.00000000000000E-01   0.00000000000000E+00   0.00000000000000E+00   0.00000000000000E+00   0.00000000000000E+00
      0.00000000000000E+00  -1.03907724683512E-16
      4.80000000000000E-01
      0.00000000000000E+00   0.00000000000000E+00   0.00000000000000E+00   0.00000000000000E+00  -9.70564618963105E-14
     -2.43199437677595E-10  -2.43296494139491E-10  -8.33051367458368E-18   1.92000000000000E-01   1.92000000000000E-01
      0.00000000000000E+00   0.00000000000000E+00   0.00000000000000E+00   0.00000000000000E+00   0.00000000000000E+00
      9.77997943337227E-17   1.40000000000000E-01   1.40000000000000E-01   0.00000000000000E+00   0.00000000000000E+00
      2.43289862207386E-10   6.63193210557694E-15   2.43296494139491E-10   1.60094812120394E-17   1.00000000000000E-01
      1.00000000000000E-01   0.00000000000000E+00   0.00000000000000E+00   0.00000000000000E+00   0.00000000000000E+00
      0.00000000000000E+00  -1.05478761871178E-16
      4.95000000000000E-01
      0.00000000000000E+00   0.00000000000000E+00   0.00000000000000E+00   0.00000000000000E+00  -9.84638129197936E-14
     -2.49587592018853E-10  -2.49686055831772E-10  -8.40236002579685E-18   1.98000000000000E-01   1.98000000000000E-01
      0.00000000000000E+00   0.00000000000000E+00   0.00000000000000E+00   0.00000000000000E+00   0.00000000000000E+00
      9.95072815720829E-17   1.40000000000000E-01   1.40000000000000E-01   0.00000000000000E+00   0.00000000000000E+00
      2.49679466707334E-10   6.58912443826857E-15   2.49686055831772E-10   1.59450145299395E-17   1.00000000000000E-01
      1.00000000000000E-01   0.00000000000000E+00   0.00000000000000E+00   0.00000000000000E+00   0.00000000000000E+00
      0.00000000000000E+00  -1.07049936076225E-16
      5.10000000000000E-01
      0.00000000000000E+00   0.00000000000000E+00   0.00000000000000E+00   0.00000000000000E+00  -9.98795925324412E-14
     -2.56243605713343E-10  -2.56343485305875E-10  -8.47395752991428E-18   2.04000000000000E-01   2.04000000000000E-01
      0.00000000000000E+00   0.00000000000000E+00   0.00000000000000E+00   0.00000000000000E+00   0.00000000000000E+00
      1.01214639082949E-16   1.40000000000000E-01   1.40000000000000E-01   0.00000000000000E+00   0.00000000000000E+00
      2.56336939192803E-10   6.54611307250833E-15   2.56343485305875E-10   1.58805601433025E-17   1.00000000000000E-01
      1.00000000000000E-01   0.00000000000000E+00   0.00000000000000E+00   0.00000000000000E+00   0.00000000000000E+00
      0.00000000000000E+00  -1.08621241696337E-16
      5.25000000000000E-01
      0.00000000000000E+00   0.00000000000000E+00   0.00000000000000E+00   0.00000000000000E+00  -1.01303774891999E-13
     -2.63180602717268E-10  -2.63281906492160E-10  -8.54531451271288E-18   2.10000000000000E-01   2.10000000000000E-01
      0.00000000000000E+00   0.00000000000000E+00   0.00000000000000E+00   0.00000000000000E+00   0.00000000000000E+00
      1.02921872080187E-16   1.40000000000000E-01   1.40000000000000E-01   0.00000000000000E+00   0.00000000000000E+00
      2.63275403575690E-10   6.50291646971772E-15   2.63281906492160E-10   1.58161158178287E-17   1.00000000000000E-01
      1.00000000000000E-01   0.00000000000000E+00   0.00000000000000E+00   0.00000000000000E+00   0.00000000000000E+00
      0.00000000000000E+00  -1.10192673385303E-16
      5.40000000000000E-01
      0.00000000000000E+00   0.00000000000000E+00   0.00000000000000E+00   0.00000000000000E+00  -1.02736356347618E-13
     -2.70413197304479E-10  -2.70515933660826E-10  -8.61643902113527E-18   2.16000000000000E-01   2.16000000000000E-01
      0.00000000000000E+00   0.00000000000000E+00   0.00000000000000E+00   0.00000000000000E+00   0.00000000000000E+00
      1.04628985547009E-16   1.40000000000000E-01   1.40000000000000E-01   0.00000000000000E+00   0.00000000000000E+00
      2.70509474106799E-10   6.45955402728869E-15   2.70515933660826E-10   1.57516795115803E-17   1.00000000000000E-01
      1.00000000000000E-01   0.00000000000000E+00   0.00000000000000E+00   0.00000000000000E+00   0.00000000000000E+00
      0.00000000000000E+00  -1.11764226037454E-16
      5.55000000000000E-01
      0.00000000000000E+00   0.00000000000000E+00   0.00000000000000E+00   0.00000000000000E+00  -1.04177355258183E-13