DF-ISE text

Info {
  version   = 1.0
  type      = xyplot
  datasets  = [
    "time"
    "source OuterVoltage" "source InnerVoltage" "source QuasiFermiPotential" "source DisplacementCurrent" "source eCurrent"
    "source hCurrent" "source TotalCurrent" "source Charge" "topGate OuterVoltage" "topGate InnerVoltage"
    "topGate QuasiFermiPotential" "topGate DisplacementCurrent" "topGate eCurrent" "topGate hCurrent" "topGate TotalCurrent"
    "topGate Charge" "drain OuterVoltage" "drain InnerVoltage" "drain QuasiFermiPotential" "drain DisplacementCurrent"
    "drain eCurrent" "drain hCurrent" "drain TotalCurrent" "drain Charge" "bottomGate OuterVoltage"
    "bottomGate InnerVoltage" "bottomGate QuasiFermiPotential" "bottomGate DisplacementCurrent" "bottomGate eCurrent" "bottomGate hCurrent"
    "bottomGate TotalCurrent" "bottomGate Charge" ]
  functions = [
    Time
    OuterVoltage InnerVoltage QuasiFermiPotential DisplacementCurrent eCurrent
    hCurrent TotalCurrent Charge OuterVoltage InnerVoltage
    QuasiFermiPotential DisplacementCurrent eCurrent hCurrent TotalCurrent
    Charge OuterVoltage InnerVoltage QuasiFermiPotential DisplacementCurrent
    eCurrent hCurrent TotalCurrent Charge OuterVoltage
    InnerVoltage QuasiFermiPotential DisplacementCurrent eCurrent hCurrent
    TotalCurrent Charge ]
}

Data {
      1.50000000000000E-02
      0.00000000000000E+00   0.00000000000000E+00   0.00000000000000E+00   0.00000000000000E+00  -5.83283353642948E-14
     -9.82837529639153E-10  -9.82895857974517E-10  -5.91881384485821E-18   6.00000000000000E-03   6.00000000000000E-03
      0.00000000000000E+00   0.00000000000000E+00   0.00000000000000E+00   0.00000000000000E+00   0.00000000000000E+00
      4.33700967433500E-17   2.70000000000000E-01   2.70000000000000E-01   0.00000000000000E+00   0.00000000000000E+00
      9.82959717561857E-10  -6.38595873389564E-14   9.82895857974518E-10   2.08208861397093E-17   1.00000000000000E-01
      1.00000000000000E-01   0.00000000000000E+00   0.00000000000000E+00   0.00000000000000E+00   0.00000000000000E+00
      0.00000000000000E+00  -5.82721690382011E-17
      3.00000000000000E-02
      0.00000000000000E+00   0.00000000000000E+00   0.00000000000000E+00   0.00000000000000E+00  -5.94456640869960E-14
     -9.71448089473878E-10  -9.71507535137965E-10  -6.00441063230743E-18   1.20000000000000E-02   1.20000000000000E-02
      0.00000000000000E+00   0.00000000000000E+00   0.00000000000000E+00   0.00000000000000E+00   0.00000000000000E+00
      4.50866962097844E-17   2.70000000000000E-01   2.70000000000000E-01   0.00000000000000E+00   0.00000000000000E+00
      9.71564984330168E-10  -5.74491922012303E-14   9.71507535137966E-10   2.07517451366283E-17   1.00000000000000E-01
      1.00000000000000E-01   0.00000000000000E+00   0.00000000000000E+00   0.00000000000000E+00   0.00000000000000E+00
      0.00000000000000E+00  -5.98340307141052E-17
      4.50000000000000E-02
      0.00000000000000E+00   0.00000000000000E+00   0.00000000000000E+00   0.00000000000000E+00  -6.05712897801541E-14
     -9.61306316524273E-10  -9.61366887814053E-10  -6.08931894392316E-18   1.80000000000000E-02   1.80000000000000E-02
      0.00000000000000E+00   0.00000000000000E+00   0.00000000000000E+00   0.00000000000000E+00   0.00000000000000E+00
      4.68026996178896E-17   2.70000000000000E-01   2.70000000000000E-01   0.00000000000000E+00   0.00000000000000E+00
      9.61418447328307E-10  -5.15595142524899E-14   9.61366887814054E-10   2.06831211684071E-17   1.00000000000000E-01
      1.00000000000000E-01   0.00000000000000E+00   0.00000000000000E+00   0.00000000000000E+00   0.00000000000000E+00
      0.00000000000000E+00  -6.13965018423735E-17
      6.00000000000000E-02
      0.00000000000000E+00   0.00000000000000E+00   0.00000000000000E+00   0.00000000000000E+00  -6.17055627952334E-14
     -9.52367941923443E-10  -9.52429647486239E-10  -6.17355915526811E-18   2.40000000000000E-02   2.40000000000000E-02
      0.00000000000000E+00   0.00000000000000E+00   0.00000000000000E+00   0.00000000000000E+00   0.00000000000000E+00
      4.85181430594763E-17   2.70000000000000E-01   2.70000000000000E-01   0.00000000000000E+00   0.00000000000000E+00
      9.52475799927361E-10  -4.61524411226664E-14   9.52429647486239E-10   2.06149619599802E-17   1.00000000000000E-01
      1.00000000000000E-01   0.00000000000000E+00   0.00000000000000E+00   0.00000000000000E+00   0.00000000000000E+00
      0.00000000000000E+00  -6.29595458641884E-17
      7.50000000000000E-02
      0.00000000000000E+00   0.00000000000000E+00   0.00000000000000E+00   0.00000000000000E+00  -6.28488026288528E-14
     -9.44591405379798E-10  -9.44654254182427E-10  -6.25715126350356E-18   3.00000000000000E-02   3.00000000000000E-02
      0.00000000000000E+00   0.00000000000000E+00   0.00000000000000E+00   0.00000000000000E+00   0.00000000000000E+00
      5.02330597607197E-17   2.70000000000000E-01   2.70000000000000E-01   0.00000000000000E+00   0.00000000000000E+00
      9.44695446541311E-10  -4.11923588817264E-14   9.44654254182429E-10   2.05472205458424E-17   1.00000000000000E-01
      1.00000000000000E-01   0.00000000000000E+00   0.00000000000000E+00   0.00000000000000E+00   0.00000000000000E+00
      0.00000000000000E+00  -6.45231290430586E-17
      9.00000000000000E-02
      0.00000000000000E+00   0.00000000000000E+00   0.00000000000000E+00   0.00000000000000E+00  -6.40012980164053E-14
     -9.37937736297327E-10  -9.38001737595343E-10  -6.34011486909588E-18   3.60000000000000E-02   3.60000000000000E-02
      0.00000000000000E+00   0.00000000000000E+00   0.00000000000000E+00   0.00000000000000E+00   0.00000000000000E+00
      5.19474803513927E-17   2.70000000000000E-01   2.70000000000000E-01   0.00000000000000E+00   0.00000000000000E+00
      9.38038383621138E-10  -3.66460257928624E-14   9.38001737595345E-10   2.04798547271737E-17   1.00000000000000E-01
      1.00000000000000E-01   0.00000000000000E+00   0.00000000000000E+00   0.00000000000000E+00   0.00000000000000E+00
      0.00000000000000E+00  -6.60872202094704E-17
      1.05000000000000E-01
      0.00000000000000E+00   0.00000000000000E+00   0.00000000000000E+00   0.00000000000000E+00  -6.51633069387593E-14
     -9.32370440848145E-10  -9.32435604155084E-10  -6.42246916108675E-18   4.20000000000000E-02   4.20000000000000E-02
      0.00000000000000E+00   0.00000000000000E+00   0.00000000000000E+00   0.00000000000000E+00   0.00000000000000E+00
      5.36614331069752E-17   2.70000000000000E-01   2.70000000000000E-01   0.00000000000000E+00   0.00000000000000E+00
      9.32468086435926E-10  -3.24822808412891E-14   9.32435604155085E-10   2.04128265843506E-17   1.00000000000000E-01
      1.00000000000000E-01   0.00000000000000E+00   0.00000000000000E+00   0.00000000000000E+00   0.00000000000000E+00
      0.00000000000000E+00  -6.76517905302390E-17
      1.20000000000000E-01
      0.00000000000000E+00   0.00000000000000E+00   0.00000000000000E+00   0.00000000000000E+00  -6.63350565697615E-14
     -9.27855394444662E-10  -9.27921729501231E-10  -6.50423290553736E-18   4.80000000000000E-02   4.80000000000000E-02
      0.00000000000000E+00   0.00000000000000E+00   0.00000000000000E+00   0.00000000000000E+00   0.00000000000000E+00
      5.53749441664044E-17   2.70000000000000E-01   2.70000000000000E-01   0.00000000000000E+00   0.00000000000000E+00
      9.27950401636623E-10  -2.86721353907514E-14   9.27921729501232E-10   2.03461020392855E-17   1.00000000000000E-01
      1.00000000000000E-01   0.00000000000000E+00   0.00000000000000E+00   0.00000000000000E+00   0.00000000000000E+00
      0.00000000000000E+00  -6.92168133001526E-17
      1.35000000000000E-01
      0.00000000000000E+00   0.00000000000000E+00   0.00000000000000E+00   0.00000000000000E+00  -6.75167432021921E-14
     -9.24360740295675E-10  -9.24428257038877E-10  -6.58542443679288E-18   5.40000000000000E-02   5.40000000000000E-02
      0.00000000000000E+00   0.00000000000000E+00   0.00000000000000E+00   0.00000000000000E+00   0.00000000000000E+00
      5.70880377279535E-17   2.70000000000000E-01   2.70000000000000E-01   0.00000000000000E+00   0.00000000000000E+00
      9.24453445595495E-10  -2.51885566186349E-14   9.24428257038877E-10   2.02796504625663E-17   1.00000000000000E-01
      1.00000000000000E-01   0.00000000000000E+00   0.00000000000000E+00   0.00000000000000E+00   0.00000000000000E+00
      0.00000000000000E+00  -7.07822637537269E-17
      1.50000000000000E-01
      0.00000000000000E+00   0.00000000000000E+00   0.00000000000000E+00   0.00000000000000E+00  -6.87085321981546E-14
     -9.21856793683546E-10  -9.21925502215744E-10  -6.66606165124621E-18   6.00000000000000E-02   6.00000000000000E-02
      0.00000000000000E+00   0.00000000000000E+00   0.00000000000000E+00   0.00000000000000E+00   0.00000000000000E+00
      5.88007362254821E-17   2.70000000000000E-01   2.70000000000000E-01   0.00000000000000E+00   0.00000000000000E+00
      9.21947508514665E-10  -2.20062989192807E-14   9.21925502215745E-10   2.02134443208573E-17   1.00000000000000E-01
      1.00000000000000E-01   0.00000000000000E+00   0.00000000000000E+00   0.00000000000000E+00   0.00000000000000E+00
      0.00000000000000E+00  -7.23481188950932E-17
      1.65000000000000E-01
      0.00000000000000E+00   0.00000000000000E+00   0.00000000000000E+00   0.00000000000000E+00  -6.99105580159313E-14
     -9.20315951933238E-10  -9.20385862491254E-10  -6.74616200331038E-18   6.60000000000000E-02   6.60000000000000E-02
      0.00000000000000E+00   0.00000000000000E+00   0.00000000000000E+00   0.00000000000000E+00   0.00000000000000E+00
      6.05130604870756E-17   2.70000000000000E-01   2.70000000000000E-01   0.00000000000000E+00   0.00000000000000E+00
      9.20404964301420E-10  -1.91018101654875E-14   9.20385862491255E-10   2.01474588604682E-17   1.00000000000000E-01
      1.00000000000000E-01   0.00000000000000E+00   0.00000000000000E+00   0.00000000000000E+00   0.00000000000000E+00
      0.00000000000000E+00  -7.39143573442334E-17
      1.80000000000000E-01
      0.00000000000000E+00   0.00000000000000E+00   0.00000000000000E+00   0.00000000000000E+00  -7.11229243686226E-14
     -9.19712609917890E-10  -9.19783732842259E-10  -6.82574250333725E-18   7.20000000000000E-02   7.20000000000000E-02
      0.00000000000000E+00   0.00000000000000E+00   0.00000000000000E+00   0.00000000000000E+00   0.00000000000000E+00
      6.22250298778845E-17   2.70000000000000E-01   2.70000000000000E-01   0.00000000000000E+00   0.00000000000000E+00
      9.19800186215424E-10  -1.64533731658988E-14   9.19783732842258E-10   2.00816718233995E-17   1.00000000000000E-01
      1.00000000000000E-01   0.00000000000000E+00   0.00000000000000E+00   0.00000000000000E+00   0.00000000000000E+00
      0.00000000000000E+00  -7.54809591979467E-17
      1.95000000000000E-01
      0.00000000000000E+00   0.00000000000000E+00   0.00000000000000E+00   0.00000000000000E+00  -7.23457045700650E-14
     -9.20023082088911E-10  -9.20095427793481E-10  -6.90481971724627E-18   7.80000000000000E-02   7.80000000000000E-02
      0.00000000000000E+00   0.00000000000000E+00   0.00000000000000E+00   0.00000000000000E+00   0.00000000000000E+00
      6.39366624287919E-17   2.70000000000000E-01   2.70000000000000E-01   0.00000000000000E+00   0.00000000000000E+00
      9.20109468303568E-10  -1.40405100877768E-14   9.20095427793481E-10   2.00160631925454E-17   1.00000000000000E-01
      1.00000000000000E-01   0.00000000000000E+00   0.00000000000000E+00   0.00000000000000E+00   0.00000000000000E+00
      0.00000000000000E+00  -7.70479059040910E-17
      2.10000000000000E-01
      0.00000000000000E+00   0.00000000000000E+00   0.00000000000000E+00   0.00000000000000E+00  -7.35789421203680E-14
     -9.21225529259817E-10  -9.21299108201938E-10  -6.98340976764965E-18   8.40000000000000E-02   8.40000000000000E-02
      0.00000000000000E+00   0.00000000000000E+00   0.00000000000000E+00   0.00000000000000E+00   0.00000000000000E+00
      6.56479749523715E-17   2.70000000000000E-01   2.70000000000000E-01   0.00000000000000E+00   0.00000000000000E+00
      9.21310952652057E-10  -1.18444501221818E-14   9.21299108201935E-10   1.99506149630626E-17   1.00000000000000E-01
      1.00000000000000E-01   0.00000000000000E+00   0.00000000000000E+00   0.00000000000000E+00   0.00000000000000E+00
      0.00000000000000E+00  -7.86151801477845E-17
      2.25000000000000E-01
      0.00000000000000E+00   0.00000000000000E+00   0.00000000000000E+00   0.00000000000000E+00  -7.48226515771723E-14
     -9.23299892228103E-10  -9.23374714879680E-10  -7.06152833628336E-18   9.00000000000000E-02   9.00000000000000E-02
      0.00000000000000E+00   0.00000000000000E+00   0.00000000000000E+00   0.00000000000000E+00   0.00000000000000E+00
      6.73589831474439E-17   2.70000000000000E-01   2.70000000000000E-01   0.00000000000000E+00   0.00000000000000E+00
      9.23384562502105E-10  -9.84762242459323E-15   9.23374714879680E-10   1.98853109372206E-17   1.00000000000000E-01
      1.00000000000000E-01   0.00000000000000E+00   0.00000000000000E+00   0.00000000000000E+00   0.00000000000000E+00
      0.00000000000000E+00  -8.01827657483812E-17
      2.40000000000000E-01
      0.00000000000000E+00   0.00000000000000E+00   0.00000000000000E+00   0.00000000000000E+00  -7.60768197495042E-14
     -9.26227830704912E-10  -9.26303907524662E-10  -7.13919066757151E-18   9.60000000000000E-02   9.60000000000000E-02
      0.00000000000000E+00   0.00000000000000E+00   0.00000000000000E+00   0.00000000000000E+00   0.00000000000000E+00
      6.90697016934086E-17   2.70000000000000E-01   2.70000000000000E-01   0.00000000000000E+00   0.00000000000000E+00
      9.26311941295388E-10  -8.03377072703252E-15   9.26303907524661E-10   1.98201365403175E-17   1.00000000000000E-01
      1.00000000000000E-01   0.00000000000000E+00   0.00000000000000E+00   0.00000000000000E+00   0.00000000000000E+00
      0.00000000000000E+00  -8.17506475661545E-17
      2.55000000000000E-01
      0.00000000000000E+00   0.00000000000000E+00   0.00000000000000E+00   0.00000000000000E+00  -7.73414072395144E-14
     -9.29992668491957E-10  -9.30070009899196E-10  -7.21641157317069E-18   1.02000000000000E-01   1.02000000000000E-01
      0.00000000000000E+00   0.00000000000000E+00   0.00000000000000E+00   0.00000000000000E+00   0.00000000000000E+00
      7.07801443354037E-17   2.70000000000000E-01   2.70000000000000E-01   0.00000000000000E+00   0.00000000000000E+00
      9.30076397738331E-10  -6.38783913266641E-15   9.30070009899199E-10   1.97550786554924E-17   1.00000000000000E-01
      1.00000000000000E-01   0.00000000000000E+00   0.00000000000000E+00   0.00000000000000E+00   0.00000000000000E+00
      0.00000000000000E+00  -8.33188114177254E-17
      2.70000000000000E-01
      0.00000000000000E+00   0.00000000000000E+00   0.00000000000000E+00   0.00000000000000E+00  -7.86163503439639E-14
     -9.34579344750187E-10  -9.34657961100531E-10  -7.29320543735618E-18   1.08000000000000E-01   1.08000000000000E-01
      0.00000000000000E+00   0.00000000000000E+00   0.00000000000000E+00   0.00000000000000E+00   0.00000000000000E+00
      7.24903239612381E-17   2.70000000000000E-01   2.70000000000000E-01   0.00000000000000E+00   0.00000000000000E+00
      9.34662857000179E-10  -4.89589964710541E-15   9.34657961100532E-10   1.96901254754882E-17   1.00000000000000E-01
      1.00000000000000E-01   0.00000000000000E+00   0.00000000000000E+00   0.00000000000000E+00   0.00000000000000E+00
      0.00000000000000E+00  -8.48872439993701E-17
      2.85000000000000E-01
      0.00000000000000E+00   0.00000000000000E+00   0.00000000000000E+00   0.00000000000000E+00  -7.99015633127893E-14
     -9.39974371616391E-10  -9.40054273179704E-10  -7.36958622312736E-18   1.14000000000000E-01   1.14000000000000E-01
      0.00000000000000E+00   0.00000000000000E+00   0.00000000000000E+00   0.00000000000000E+00   0.00000000000000E+00
      7.42002526709402E-17   2.70000000000000E-01   2.70000000000000E-01   0.00000000000000E+00   0.00000000000000E+00
      9.40057818189472E-10  -3.54500976973372E-15   9.40054273179702E-10   1.96252663696164E-17   1.00000000000000E-01
      1.00000000000000E-01   0.00000000000000E+00   0.00000000000000E+00   0.00000000000000E+00   0.00000000000000E+00
      0.00000000000000E+00  -8.64559328174292E-17
      3.00000000000000E-01
      0.00000000000000E+00   0.00000000000000E+00   0.00000000000000E+00   0.00000000000000E+00  -8.11969409472244E-14
     -9.46165798086336E-10  -9.46246995027283E-10  -7.44556747892203E-18   1.20000000000000E-01   1.20000000000000E-01
      0.00000000000000E+00   0.00000000000000E+00   0.00000000000000E+00   0.00000000000000E+00   0.00000000000000E+00
      7.59099418396813E-17   2.70000000000000E-01   2.70000000000000E-01   0.00000000000000E+00   0.00000000000000E+00
      9.46249318286630E-10  -2.32325934746043E-15   9.46246995027283E-10   1.95604917643555E-17   1.00000000000000E-01
      1.00000000000000E-01   0.00000000000000E+00   0.00000000000000E+00   0.00000000000000E+00   0.00000000000000E+00
      0.00000000000000E+00  -8.80248661251148E-17
      3.15000000000000E-01
      0.00000000000000E+00   0.00000000000000E+00   0.00000000000000E+00   0.00000000000000E+00  -8.25023615055062E-14
     -9.53143180778170E-10  -9.53225683139675E-10  -7.52116234584222E-18   1.26000000000000E-01   1.26000000000000E-01
      0.00000000000000E+00   0.00000000000000E+00   0.00000000000000E+00   0.00000000000000E+00   0.00000000000000E+00
      7.76194021747524E-17   2.70000000000000E-01   2.70000000000000E-01   0.00000000000000E+00   0.00000000000000E+00
      9.53226902748118E-10  -1.21960844327187E-15   9.53225683139674E-10   1.94957930361781E-17   1.00000000000000E-01
      1.00000000000000E-01   0.00000000000000E+00   0.00000000000000E+00   0.00000000000000E+00   0.00000000000000E+00
      0.00000000000000E+00  -8.95940328650883E-17
      3.30000000000000E-01
      0.00000000000000E+00   0.00000000000000E+00   0.00000000000000E+00   0.00000000000000E+00  -8.38176898708850E-14
     -9.60897561449996E-10  -9.60981379139867E-10  -7.59638356530396E-18   1.32000000000000E-01   1.32000000000000E-01
      0.00000000000000E+00   0.00000000000000E+00   0.00000000000000E+00   0.00000000000000E+00   0.00000000000000E+00
      7.93286437671995E-17   2.70000000000000E-01   2.70000000000000E-01   0.00000000000000E+00   0.00000000000000E+00
      9.60981603040436E-10  -2.23900570013291E-16   9.60981379139866E-10   1.94311624153425E-17   1.00000000000000E-01
      1.00000000000000E-01   0.00000000000000E+00   0.00000000000000E+00   0.00000000000000E+00   0.00000000000000E+00
      0.00000000000000E+00  -9.11634226172380E-17
      3.45000000000000E-01
      0.00000000000000E+00   0.00000000000000E+00   0.00000000000000E+00   0.00000000000000E+00  -8.51427809251199E-14
     -9.69421451882381E-10  -9.69506594663307E-10  -7.67124348703405E-18   1.38000000000000E-01   1.38000000000000E-01
      0.00000000000000E+00   0.00000000000000E+00   0.00000000000000E+00   0.00000000000000E+00   0.00000000000000E+00
      8.10376761386640E-17   2.70000000000000E-01   2.70000000000000E-01   0.00000000000000E+00   0.00000000000000E+00
      9.69505921411040E-10   6.73252267017098E-16   9.69506594663307E-10   1.93665928995200E-17   1.00000000000000E-01
      1.00000000000000E-01   0.00000000000000E+00   0.00000000000000E+00   0.00000000000000E+00   0.00000000000000E+00
      0.00000000000000E+00  -9.27330255511500E-17
      3.60000000000000E-01
      0.00000000000000E+00   0.00000000000000E+00   0.00000000000000E+00   0.00000000000000E+00  -8.64774830613614E-14
     -9.78708826267082E-10  -9.78795303750144E-10  -7.74575407734472E-18   1.44000000000000E-01   1.44000000000000E-01
      0.00000000000000E+00   0.00000000000000E+00   0.00000000000000E+00   0.00000000000000E+00   0.00000000000000E+00
      8.27465082839123E-17   2.70000000000000E-01   2.70000000000000E-01   0.00000000000000E+00   0.00000000000000E+00
      9.78793823259190E-10   1.48049095268184E-15   9.78795303750143E-10   1.93020781762426E-17   1.00000000000000E-01
      1.00000000000000E-01   0.00000000000000E+00   0.00000000000000E+00   0.00000000000000E+00   0.00000000000000E+00
      0.00000000000000E+00  -9.43028323828103E-17
      3.75000000000000E-01
      0.00000000000000E+00   0.00000000000000E+00   0.00000000000000E+00   0.00000000000000E+00  -8.78216417637297E-14
     -9.88755121659934E-10  -9.88842943301698E-10  -7.81992692762544E-18   1.50000000000000E-01   1.50000000000000E-01
      0.00000000000000E+00   0.00000000000000E+00   0.00000000000000E+00   0.00000000000000E+00   0.00000000000000E+00
      8.44551487094921E-17   2.70000000000000E-01   2.70000000000000E-01   0.00000000000000E+00   0.00000000000000E+00
      9.88840737534452E-10   2.20576724574764E-15   9.88842943301697E-10   1.92376125532609E-17   1.00000000000000E-01
      1.00000000000000E-01   0.00000000000000E+00   0.00000000000000E+00   0.00000000000000E+00   0.00000000000000E+00
      0.00000000000000E+00  -9.58728343351275E-17
      3.90000000000000E-01
      0.00000000000000E+00   0.00000000000000E+00   0.00000000000000E+00   0.00000000000000E+00  -8.91751031771805E-14
     -9.99557246965320E-10  -9.99646422068497E-10  -7.89377326299817E-18   1.56000000000000E-01   1.56000000000000E-01
      0.00000000000000E+00   0.00000000000000E+00   0.00000000000000E+00   0.00000000000000E+00   0.00000000000000E+00
      8.61636054689050E-17   2.70000000000000E-01   2.70000000000000E-01   0.00000000000000E+00   0.00000000000000E+00
      9.99643565665053E-10   2.85640344270425E-15   9.99646422068496E-10   1.91731908959989E-17   1.00000000000000E-01
      1.00000000000000E-01   0.00000000000000E+00   0.00000000000000E+00   0.00000000000000E+00   0.00000000000000E+00
      0.00000000000000E+00  -9.74430231019058E-17
      4.05000000000000E-01
      0.00000000000000E+00   0.00000000000000E+00   0.00000000000000E+00   0.00000000000000E+00  -9.05377175904635E-14
     -1.01111360099299E-09  -1.01120413871058E-09  -7.96730395108822E-18   1.62000000000000E-01   1.62000000000000E-01
      0.00000000000000E+00   0.00000000000000E+00   0.00000000000000E+00   0.00000000000000E+00   0.00000000000000E+00
      8.78718861946458E-17   2.70000000000000E-01   2.70000000000000E-01   0.00000000000000E+00   0.00000000000000E+00
      1.01120069960463E-09   3.43910594917050E-15   1.01120413871058E-09   1.91088085713736E-17   1.00000000000000E-01
      1.00000000000000E-01   0.00000000000000E+00   0.00000000000000E+00   0.00000000000000E+00   0.00000000000000E+00
      0.00000000000000E+00  -9.90133908149312E-17
      4.20000000000000E-01
      0.00000000000000E+00   0.00000000000000E+00   0.00000000000000E+00   0.00000000000000E+00  -9.19093427571551E-14
     -1.02342410040348E-09  -1.02351600974624E-09  -8.04052951086903E-18   1.68000000000000E-01   1.68000000000000E-01
      0.00000000000000E+00   0.00000000000000E+00   0.00000000000000E+00   0.00000000000000E+00   0.00000000000000E+00
      8.95799981274197E-17   2.70000000000000E-01   2.70000000000000E-01   0.00000000000000E+00   0.00000000000000E+00
      1.02351204968588E-09   3.96006035948515E-15   1.02351600974624E-09   1.90444613973247E-17   1.00000000000000E-01
      1.00000000000000E-01   0.00000000000000E+00   0.00000000000000E+00   0.00000000000000E+00   0.00000000000000E+00
      0.00000000000000E+00  -1.00583930013875E-16
      4.35000000000000E-01
      0.00000000000000E+00   0.00000000000000E+00   0.00000000000000E+00   0.00000000000000E+00  -9.32898469844915E-14
     -1.03649021815615E-09  -1.03658350800313E-09  -8.11346012154369E-18   1.74000000000000E-01   1.74000000000000E-01
      0.00000000000000E+00   0.00000000000000E+00   0.00000000000000E+00   0.00000000000000E+00   0.00000000000000E+00
      9.12879481428195E-17   2.70000000000000E-01   2.70000000000000E-01   0.00000000000000E+00   0.00000000000000E+00
      1.03657908308484E-09   4.42491828956525E-15   1.03658350800313E-09   1.89801455974677E-17   1.00000000000000E-01
      1.00000000000000E-01   0.00000000000000E+00   0.00000000000000E+00   0.00000000000000E+00   0.00000000000000E+00
      0.00000000000000E+00  -1.02154633618744E-16
      4.50000000000000E-01
      0.00000000000000E+00   0.00000000000000E+00   0.00000000000000E+00   0.00000000000000E+00  -9.46791119269972E-14
     -1.05031503358015E-09  -1.05040971269207E-09  -8.18610563143106E-18   1.80000000000000E-01   1.80000000000000E-01
      0.00000000000000E+00   0.00000000000000E+00   0.00000000000000E+00   0.00000000000000E+00   0.00000000000000E+00
      9.29957427757132E-17   2.70000000000000E-01   2.70000000000000E-01   0.00000000000000E+00   0.00000000000000E+00
      1.05040487383261E-09   4.83885946250685E-15   1.05040971269207E-09   1.89158577603427E-17   1.00000000000000E-01
      1.00000000000000E-01   0.00000000000000E+00   0.00000000000000E+00   0.00000000000000E+00   0.00000000000000E+00
      0.00000000000000E+00  -1.03725494904625E-16
      4.65000000000000E-01
      0.00000000000000E+00   0.00000000000000E+00   0.00000000000000E+00   0.00000000000000E+00  -9.60770350309749E-14
     -1.06490329507187E-09  -1.06499937210691E-09  -8.25847556682806E-18   1.86000000000000E-01   1.86000000000000E-01
      0.00000000000000E+00   0.00000000000000E+00   0.00000000000000E+00   0.00000000000000E+00   0.00000000000000E+00
      9.47033882425666E-17   2.70000000000000E-01   2.70000000000000E-01   0.00000000000000E+00   0.00000000000000E+00
      1.06499416546289E-09   5.20664401825097E-15   1.06499937210690E-09   1.88515948027897E-17   1.00000000000000E-01
      1.00000000000000E-01   0.00000000000000E+00   0.00000000000000E+00   0.00000000000000E+00   0.00000000000000E+00
      0.00000000000000E+00  -1.05296507478528E-16
      4.80000000000000E-01
      0.00000000000000E+00   0.00000000000000E+00   0.00000000000000E+00   0.00000000000000E+00  -9.74835315865716E-14
     -1.08026149662789E-09  -1.08035898015947E-09  -8.33057914082322E-18   1.92000000000000E-01   1.92000000000000E-01
      0.00000000000000E+00   0.00000000000000E+00   0.00000000000000E+00   0.00000000000000E+00   0.00000000000000E+00
      9.64108904619035E-17   2.70000000000000E-01   2.70000000000000E-01   0.00000000000000E+00   0.00000000000000E+00
      1.08035344755755E-09   5.53260192646938E-15   1.08035898015947E-09   1.87873539370239E-17   1.00000000000000E-01
      1.00000000000000E-01   0.00000000000000E+00   0.00000000000000E+00   0.00000000000000E+00   0.00000000000000E+00
      0.00000000000000E+00  -1.06867665258104E-16
      4.95000000000000E-01
      0.00000000000000E+00   0.00000000000000E+00   0.00000000000000E+00   0.00000000000000E+00  -9.88985363558107E-14
     -1.09639796981990E-09  -1.09649686835625E-09  -8.40242526204024E-18   1.98000000000000E-01   1.98000000000000E-01
      0.00000000000000E+00   0.00000000000000E+00   0.00000000000000E+00   0.00000000000000E+00   0.00000000000000E+00
      9.81182550730831E-17   2.70000000000000E-01   2.70000000000000E-01   0.00000000000000E+00   0.00000000000000E+00
      1.09649104764786E-09   5.82070839158722E-15   1.09649686835625E-09   1.87231326410353E-17   1.00000000000000E-01
      1.00000000000000E-01   0.00000000000000E+00   0.00000000000000E+00   0.00000000000000E+00   0.00000000000000E+00
      0.00000000000000E+00  -1.08438962452078E-16
      5.10000000000000E-01
      0.00000000000000E+00   0.00000000000000E+00   0.00000000000000E+00   0.00000000000000E+00  -1.00322004756963E-13
     -1.11332299272324E-09  -1.11342331472799E-09  -8.47402254329248E-18   2.04000000000000E-01   2.04000000000000E-01
      0.00000000000000E+00   0.00000000000000E+00   0.00000000000000E+00   0.00000000000000E+00   0.00000000000000E+00
      9.98254874535574E-17   2.70000000000000E-01   2.70000000000000E-01   0.00000000000000E+00   0.00000000000000E+00
      1.11341724014916E-09   6.07457883182326E-15   1.11342331472799E-09   1.86589286319699E-17   1.00000000000000E-01
      1.00000000000000E-01   0.00000000000000E+00   0.00000000000000E+00   0.00000000000000E+00   0.00000000000000E+00
      0.00000000000000E+00  -1.10010393542235E-16
      5.25000000000000E-01
      0.00000000000000E+00   0.00000000000000E+00   0.00000000000000E+00   0.00000000000000E+00  -1.01753913597850E-13
     -1.13104891785815E-09  -1.13115067177175E-09  -8.54537931013278E-18   2.10000000000000E-01   2.10000000000000E-01
      0.00000000000000E+00   0.00000000000000E+00   0.00000000000000E+00   0.00000000000000E+00   0.00000000000000E+00
      1.01532592734754E-16   2.70000000000000E-01   2.70000000000000E-01   0.00000000000000E+00   0.00000000000000E+00
      1.13114437425194E-09   6.29751980373053E-15   1.13115067177175E-09   1.85947398421891E-17   1.00000000000000E-01
      1.00000000000000E-01   0.00000000000000E+00   0.00000000000000E+00   0.00000000000000E+00   0.00000000000000E+00
      0.00000000000000E+00  -1.11581953266810E-16
      5.40000000000000E-01
      0.00000000000000E+00   0.00000000000000E+00   0.00000000000000E+00   0.00000000000000E+00  -1.03194261362104E-13
     -1.14959032123799E-09  -1.14969351549935E-09  -8.61650360928421E-18   2.16000000000000E-01   2.16000000000000E-01
      0.00000000000000E+00   0.00000000000000E+00   0.00000000000000E+00   0.00000000000000E+00   0.00000000000000E+00
      1.03239575816713E-16   2.70000000000000E-01   2.70000000000000E-01   0.00000000000000E+00   0.00000000000000E+00
      1.14968702296293E-09   6.49253641744637E-15   1.14969351549935E-09   1.85305643977333E-17   1.00000000000000E-01
      1.00000000000000E-01   0.00000000000000E+00   0.00000000000000E+00   0.00000000000000E+00   0.00000000000000E+00
      0.00000000000000E+00  -1.13153636605162E-16
      5.55000000000000E-01
      0.00000000000000E+00   0.00000000000000E+00   0.00000000000000E+00   0.00000000000000E+00  -1.04643068063356E-13