DF-ISE text

Info {
  version   = 1.0
  type      = xyplot
  datasets  = [
    "time"
    "source OuterVoltage" "source InnerVoltage" "source QuasiFermiPotential" "source DisplacementCurrent" "source eCurrent"
    "source hCurrent" "source TotalCurrent" "source Charge" "topGate OuterVoltage" "topGate InnerVoltage"
    "topGate QuasiFermiPotential" "topGate DisplacementCurrent" "topGate eCurrent" "topGate hCurrent" "topGate TotalCurrent"
    "topGate Charge" "drain OuterVoltage" "drain InnerVoltage" "drain QuasiFermiPotential" "drain DisplacementCurrent"
    "drain eCurrent" "drain hCurrent" "drain TotalCurrent" "drain Charge" "bottomGate OuterVoltage"
    "bottomGate InnerVoltage" "bottomGate QuasiFermiPotential" "bottomGate DisplacementCurrent" "bottomGate eCurrent" "bottomGate hCurrent"
    "bottomGate TotalCurrent" "bottomGate Charge" ]
  functions = [
    Time
    OuterVoltage InnerVoltage QuasiFermiPotential DisplacementCurrent eCurrent
    hCurrent TotalCurrent Charge OuterVoltage InnerVoltage
    QuasiFermiPotential DisplacementCurrent eCurrent hCurrent TotalCurrent
    Charge OuterVoltage InnerVoltage QuasiFermiPotential DisplacementCurrent
    eCurrent hCurrent TotalCurrent Charge OuterVoltage
    InnerVoltage QuasiFermiPotential DisplacementCurrent eCurrent hCurrent
    TotalCurrent Charge ]
}

Data {
      1.50000000000000E-02
      0.00000000000000E+00   0.00000000000000E+00   0.00000000000000E+00   0.00000000000000E+00  -7.19536091135855E-14
     -9.21084170043297E-10  -9.21156123652411E-10  -6.87857247108980E-18   6.00000000000000E-03   6.00000000000000E-03
      0.00000000000000E+00   0.00000000000000E+00   0.00000000000000E+00   0.00000000000000E+00   0.00000000000000E+00
      2.45829063954593E-17   3.20000000000000E-01   3.20000000000000E-01   0.00000000000000E+00   0.00000000000000E+00
      9.21261406430230E-10  -1.05282777818604E-13   9.21156123652411E-10   2.11011334571496E-17   1.70000000000000E-01
      1.70000000000000E-01   0.00000000000000E+00   0.00000000000000E+00   0.00000000000000E+00   0.00000000000000E+00
      0.00000000000000E+00  -3.88054673815192E-17
      3.00000000000000E-02
      0.00000000000000E+00   0.00000000000000E+00   0.00000000000000E+00   0.00000000000000E+00  -7.31855126282757E-14
     -8.98774895282549E-10  -8.98848080795177E-10  -6.95732302448330E-18   1.20000000000000E-02   1.20000000000000E-02
      0.00000000000000E+00   0.00000000000000E+00   0.00000000000000E+00   0.00000000000000E+00   0.00000000000000E+00
      2.62942585041641E-17   3.20000000000000E-01   3.20000000000000E-01   0.00000000000000E+00   0.00000000000000E+00
      8.98943676437256E-10  -9.55956420775388E-14   8.98848080795178E-10   2.10358337832328E-17   1.70000000000000E-01
      1.70000000000000E-01   0.00000000000000E+00   0.00000000000000E+00   0.00000000000000E+00   0.00000000000000E+00
      0.00000000000000E+00  -4.03727692629135E-17
      4.50000000000000E-02
      0.00000000000000E+00   0.00000000000000E+00   0.00000000000000E+00   0.00000000000000E+00  -7.44285075310856E-14
     -8.78056617272041E-10  -8.78131045779572E-10  -7.03559674594063E-18   1.80000000000000E-02   1.80000000000000E-02
      0.00000000000000E+00   0.00000000000000E+00   0.00000000000000E+00   0.00000000000000E+00   0.00000000000000E+00
      2.80053027138953E-17   3.20000000000000E-01   3.20000000000000E-01   0.00000000000000E+00   0.00000000000000E+00
      8.78217708278642E-10  -8.66624990695702E-14   8.78131045779572E-10   2.09706735833457E-17   1.70000000000000E-01
      1.70000000000000E-01   0.00000000000000E+00   0.00000000000000E+00   0.00000000000000E+00   0.00000000000000E+00
      0.00000000000000E+00  -4.19403795513004E-17
      6.00000000000000E-02
      0.00000000000000E+00   0.00000000000000E+00   0.00000000000000E+00   0.00000000000000E+00  -7.56827042593584E-14
     -8.58858005087964E-10  -8.58933687792223E-10  -7.11340904907665E-18   2.40000000000000E-02   2.40000000000000E-02
      0.00000000000000E+00   0.00000000000000E+00   0.00000000000000E+00   0.00000000000000E+00   0.00000000000000E+00
      2.97160541463163E-17   3.20000000000000E-01   3.20000000000000E-01   0.00000000000000E+00   0.00000000000000E+00
      8.59012118426078E-10  -7.84306338549163E-14   8.58933687792223E-10   2.09056382179001E-17   1.70000000000000E-01
      1.70000000000000E-01   0.00000000000000E+00   0.00000000000000E+00   0.00000000000000E+00   0.00000000000000E+00
      0.00000000000000E+00  -4.35082833151398E-17
      7.50000000000000E-02
      0.00000000000000E+00   0.00000000000000E+00   0.00000000000000E+00   0.00000000000000E+00  -7.69481963570342E-14
     -8.41111720775651E-10  -8.41188668972008E-10  -7.19077491122267E-18   3.00000000000000E-02   3.00000000000000E-02
      0.00000000000000E+00   0.00000000000000E+00   0.00000000000000E+00   0.00000000000000E+00   0.00000000000000E+00
      3.14265269170583E-17   3.20000000000000E-01   3.20000000000000E-01   0.00000000000000E+00   0.00000000000000E+00
      8.41259519465844E-10  -7.08504938361915E-14   8.41188668972008E-10   2.08407145782884E-17   1.70000000000000E-01
      1.70000000000000E-01   0.00000000000000E+00   0.00000000000000E+00   0.00000000000000E+00   0.00000000000000E+00
      0.00000000000000E+00  -4.50764665841240E-17
      9.00000000000000E-02
      0.00000000000000E+00   0.00000000000000E+00   0.00000000000000E+00   0.00000000000000E+00  -7.82250613065966E-14
     -8.24754238521447E-10  -8.24832463582753E-10  -7.26770887856548E-18   3.60000000000000E-02   3.60000000000000E-02
      0.00000000000000E+00   0.00000000000000E+00   0.00000000000000E+00   0.00000000000000E+00   0.00000000000000E+00
      3.31367342232351E-17   3.20000000000000E-01   3.20000000000000E-01   0.00000000000000E+00   0.00000000000000E+00
      8.24896339289550E-10  -6.38757067959890E-14   8.24832463582754E-10   2.07758909243138E-17   1.70000000000000E-01
      1.70000000000000E-01   0.00000000000000E+00   0.00000000000000E+00   0.00000000000000E+00   0.00000000000000E+00
      0.00000000000000E+00  -4.66449162689834E-17
      1.05000000000000E-01
      0.00000000000000E+00   0.00000000000000E+00   0.00000000000000E+00   0.00000000000000E+00  -7.95133612704584E-14
     -8.09725670789581E-10  -8.09805184150852E-10  -7.34422507207346E-18   4.20000000000000E-02   4.20000000000000E-02
      0.00000000000000E+00   0.00000000000000E+00   0.00000000000000E+00   0.00000000000000E+00   0.00000000000000E+00
      3.48466884221169E-17   3.20000000000000E-01   3.20000000000000E-01   0.00000000000000E+00   0.00000000000000E+00
      8.09862646911441E-10  -5.74627605898134E-14   8.09805184150851E-10   2.07111567390380E-17   1.70000000000000E-01
      1.70000000000000E-01   0.00000000000000E+00   0.00000000000000E+00   0.00000000000000E+00   0.00000000000000E+00
      0.00000000000000E+00  -4.82136200890814E-17
      1.20000000000000E-01
      0.00000000000000E+00   0.00000000000000E+00   0.00000000000000E+00   0.00000000000000E+00  -8.08131437504552E-14
     -7.95969600879274E-10  -7.96050414023024E-10  -7.42033719408850E-18   4.80000000000000E-02   4.80000000000000E-02
      0.00000000000000E+00   0.00000000000000E+00   0.00000000000000E+00   0.00000000000000E+00   0.00000000000000E+00
      3.65564011019112E-17   3.20000000000000E-01   3.20000000000000E-01   0.00000000000000E+00   0.00000000000000E+00
      7.96101984942287E-10  -5.15709192632243E-14   7.96050414023024E-10   2.06465025991697E-17   1.70000000000000E-01
      1.70000000000000E-01   0.00000000000000E+00   0.00000000000000E+00   0.00000000000000E+00   0.00000000000000E+00
      0.00000000000000E+00  -4.97825665069923E-17
      1.35000000000000E-01
      0.00000000000000E+00   0.00000000000000E+00   0.00000000000000E+00   0.00000000000000E+00  -8.21244421752965E-14
     -7.83432922263810E-10  -7.83515046705985E-10  -7.49605853547578E-18   5.40000000000000E-02   5.40000000000000E-02
      0.00000000000000E+00   0.00000000000000E+00   0.00000000000000E+00   0.00000000000000E+00   0.00000000000000E+00
      3.82658831454953E-17   3.20000000000000E-01   3.20000000000000E-01   0.00000000000000E+00   0.00000000000000E+00
      7.83561208738969E-10  -4.61620329848408E-14   7.83515046705984E-10   2.05819200593209E-17   1.70000000000000E-01
      1.70000000000000E-01   0.00000000000000E+00   0.00000000000000E+00   0.00000000000000E+00   0.00000000000000E+00
      0.00000000000000E+00  -5.13517446693405E-17
      1.50000000000000E-01
      0.00000000000000E+00   0.00000000000000E+00   0.00000000000000E+00   0.00000000000000E+00  -8.34472764271035E-14
     -7.72065684524583E-10  -7.72149131801010E-10  -7.57140198323579E-18   6.00000000000000E-02   6.00000000000000E-02
      0.00000000000000E+00   0.00000000000000E+00   0.00000000000000E+00   0.00000000000000E+00   0.00000000000000E+00
      3.99751447878556E-17   3.20000000000000E-01   3.20000000000000E-01   0.00000000000000E+00   0.00000000000000E+00
      7.72190332239863E-10  -4.12004388523589E-14   7.72149131801011E-10   2.05174015486351E-17   1.70000000000000E-01
      1.70000000000000E-01   0.00000000000000E+00   0.00000000000000E+00   0.00000000000000E+00   0.00000000000000E+00
      0.00000000000000E+00  -5.29211443532549E-17
      1.65000000000000E-01
      0.00000000000000E+00   0.00000000000000E+00   0.00000000000000E+00   0.00000000000000E+00  -8.47816533194744E-14
     -7.61820946028034E-10  -7.61905727681354E-10  -7.64638002849444E-18   6.60000000000000E-02   6.60000000000000E-02
      0.00000000000000E+00   0.00000000000000E+00   0.00000000000000E+00   0.00000000000000E+00   0.00000000000000E+00
      4.16841956679011E-17   3.20000000000000E-01   3.20000000000000E-01   0.00000000000000E+00   0.00000000000000E+00
      7.61942380488943E-10  -3.66528075891294E-14   7.61905727681354E-10   2.04529402784542E-17   1.70000000000000E-01
      1.70000000000000E-01   0.00000000000000E+00   0.00000000000000E+00   0.00000000000000E+00   0.00000000000000E+00
      0.00000000000000E+00  -5.44907559178609E-17
      1.80000000000000E-01
      0.00000000000000E+00   0.00000000000000E+00   0.00000000000000E+00   0.00000000000000E+00  -8.61275670406448E-14
     -7.52654633276530E-10  -7.52740760843571E-10  -7.72100477479622E-18   7.20000000000000E-02   7.20000000000000E-02
      0.00000000000000E+00   0.00000000000000E+00   0.00000000000000E+00   0.00000000000000E+00   0.00000000000000E+00
      4.33930448752523E-17   3.20000000000000E-01   3.20000000000000E-01   0.00000000000000E+00   0.00000000000000E+00
      7.52773248846303E-10  -3.24880027316437E-14   7.52740760843571E-10   2.03885301598370E-17   1.70000000000000E-01
      1.70000000000000E-01   0.00000000000000E+00   0.00000000000000E+00   0.00000000000000E+00   0.00000000000000E+00
      0.00000000000000E+00  -5.60605702602931E-17
      1.95000000000000E-01
      0.00000000000000E+00   0.00000000000000E+00   0.00000000000000E+00   0.00000000000000E+00  -8.74849995761765E-14
     -7.44525406902830E-10  -7.44612891902406E-10  -7.79528794663484E-18   7.80000000000000E-02   7.80000000000000E-02
      0.00000000000000E+00   0.00000000000000E+00   0.00000000000000E+00   0.00000000000000E+00   0.00000000000000E+00
      4.51017009925355E-17   3.20000000000000E-01   3.20000000000000E-01   0.00000000000000E+00   0.00000000000000E+00
      7.44641568879453E-10  -2.86769770454960E-14   7.44612891902407E-10   2.03241657298659E-17   1.70000000000000E-01
      1.70000000000000E-01   0.00000000000000E+00   0.00000000000000E+00   0.00000000000000E+00   0.00000000000000E+00
      0.00000000000000E+00  -5.76305787757666E-17
      2.10000000000000E-01
      0.00000000000000E+00   0.00000000000000E+00   0.00000000000000E+00   0.00000000000000E+00  -8.88539211260541E-14
     -7.37394534386077E-10  -7.37483388307203E-10  -7.86924089816309E-18   8.40000000000000E-02   8.40000000000000E-02
      0.00000000000000E+00   0.00000000000000E+00   0.00000000000000E+00   0.00000000000000E+00   0.00000000000000E+00
      4.68101721336590E-17   3.20000000000000E-01   3.20000000000000E-01   0.00000000000000E+00   0.00000000000000E+00
      7.37508580928427E-10  -2.51926212241401E-14   7.37483388307203E-10   2.02598420857985E-17   1.70000000000000E-01
      1.70000000000000E-01   0.00000000000000E+00   0.00000000000000E+00   0.00000000000000E+00   0.00000000000000E+00
      0.00000000000000E+00  -5.92007733212944E-17
      2.25000000000000E-01
      0.00000000000000E+00   0.00000000000000E+00   0.00000000000000E+00   0.00000000000000E+00  -9.02342905310099E-14
     -7.31225769340693E-10  -7.31316003631224E-10  -7.94287462203092E-18   9.00000000000000E-02   9.00000000000000E-02
      0.00000000000000E+00   0.00000000000000E+00   0.00000000000000E+00   0.00000000000000E+00   0.00000000000000E+00
      4.85184659784913E-17   3.20000000000000E-01   3.20000000000000E-01   0.00000000000000E+00   0.00000000000000E+00
      7.31338013338417E-10  -2.20097071926662E-14   7.31316003631225E-10   2.01955548262188E-17   1.70000000000000E-01
      1.70000000000000E-01   0.00000000000000E+00   0.00000000000000E+00   0.00000000000000E+00   0.00000000000000E+00
      0.00000000000000E+00  -6.07711461826791E-17
      2.40000000000000E-01
      0.00000000000000E+00   0.00000000000000E+00   0.00000000000000E+00   0.00000000000000E+00  -9.16260557222771E-14
     -7.25985237589286E-10  -7.26076863645008E-10  -8.01619975830709E-18   9.60000000000000E-02   9.60000000000000E-02
      0.00000000000000E+00   0.00000000000000E+00   0.00000000000000E+00   0.00000000000000E+00   0.00000000000000E+00
      5.02265898043208E-17   3.20000000000000E-01   3.20000000000000E-01   0.00000000000000E+00   0.00000000000000E+00
      7.26095968355982E-10  -1.91047109729916E-14   7.26076863645009E-10   2.01312999984368E-17   1.70000000000000E-01
      1.70000000000000E-01   0.00000000000000E+00   0.00000000000000E+00   0.00000000000000E+00   0.00000000000000E+00
      0.00000000000000E+00  -6.23416900444505E-17
      2.55000000000000E-01
      0.00000000000000E+00   0.00000000000000E+00   0.00000000000000E+00   0.00000000000000E+00  -9.30291542077562E-14
     -7.21641329765189E-10  -7.21734358919397E-10  -8.08922660344469E-18   1.02000000000000E-01   1.02000000000000E-01
      0.00000000000000E+00   0.00000000000000E+00   0.00000000000000E+00   0.00000000000000E+00   0.00000000000000E+00
      5.19345505144309E-17   3.20000000000000E-01   3.20000000000000E-01   0.00000000000000E+00   0.00000000000000E+00
      7.21750814689488E-10  -1.64557700894078E-14   7.21734358919399E-10   2.00670740514650E-17   1.70000000000000E-01
      1.70000000000000E-01   0.00000000000000E+00   0.00000000000000E+00   0.00000000000000E+00   0.00000000000000E+00
      0.00000000000000E+00  -6.39123979624513E-17
      2.70000000000000E-01
      0.00000000000000E+00   0.00000000000000E+00   0.00000000000000E+00   0.00000000000000E+00  -9.44435136058056E-14
     -7.18164600681243E-10  -7.18259044194849E-10  -8.16196511925664E-18   1.08000000000000E-01   1.08000000000000E-01
      0.00000000000000E+00   0.00000000000000E+00   0.00000000000000E+00   0.00000000000000E+00   0.00000000000000E+00
      5.36423546640897E-17   3.20000000000000E-01   3.20000000000000E-01   0.00000000000000E+00   0.00000000000000E+00
      7.18273086740369E-10  -1.40425455196860E-14   7.18259044194849E-10   2.00028737939735E-17   1.70000000000000E-01
      1.70000000000000E-01   0.00000000000000E+00   0.00000000000000E+00   0.00000000000000E+00   0.00000000000000E+00
      0.00000000000000E+00  -6.54832633388065E-17
      2.85000000000000E-01
      0.00000000000000E+00   0.00000000000000E+00   0.00000000000000E+00   0.00000000000000E+00  -9.58690522355558E-14
     -7.15527675316691E-10  -7.15623544368926E-10  -8.23442494187090E-18   1.14000000000000E-01   1.14000000000000E-01
      0.00000000000000E+00   0.00000000000000E+00   0.00000000000000E+00   0.00000000000000E+00   0.00000000000000E+00
      5.53500084842215E-17   3.20000000000000E-01   3.20000000000000E-01   0.00000000000000E+00   0.00000000000000E+00
      7.15635390519831E-10  -1.18461509048554E-14   7.15623544368926E-10   1.99386963566908E-17   1.70000000000000E-01
      1.70000000000000E-01   0.00000000000000E+00   0.00000000000000E+00   0.00000000000000E+00   0.00000000000000E+00
      0.00000000000000E+00  -6.70542798990413E-17
      3.00000000000000E-01
      0.00000000000000E+00   0.00000000000000E+00   0.00000000000000E+00   0.00000000000000E+00  -9.73056797699352E-14
     -7.13705161549555E-10  -7.13802467229325E-10  -8.30661539063937E-18   1.20000000000000E-01   1.20000000000000E-01
      0.00000000000000E+00   0.00000000000000E+00   0.00000000000000E+00   0.00000000000000E+00   0.00000000000000E+00
      5.70575179029976E-17   3.20000000000000E-01   3.20000000000000E-01   0.00000000000000E+00   0.00000000000000E+00
      7.13812316274975E-10  -9.84904565037289E-15   7.13802467229325E-10   1.98745391587736E-17   1.70000000000000E-01
      1.70000000000000E-01   0.00000000000000E+00   0.00000000000000E+00   0.00000000000000E+00   0.00000000000000E+00
      0.00000000000000E+00  -6.86254416711318E-17
      3.15000000000000E-01
      0.00000000000000E+00   0.00000000000000E+00   0.00000000000000E+00   0.00000000000000E+00  -9.87532979545411E-14
     -7.12673569592732E-10  -7.12772322890687E-10  -8.37854547697792E-18   1.26000000000000E-01   1.26000000000000E-01
      0.00000000000000E+00   0.00000000000000E+00   0.00000000000000E+00   0.00000000000000E+00   0.00000000000000E+00
      5.87648885655587E-17   3.20000000000000E-01   3.20000000000000E-01   0.00000000000000E+00   0.00000000000000E+00
      7.12780357859372E-10  -8.03496868656861E-15   7.12772322890686E-10   1.98103998777214E-17   1.70000000000000E-01
      1.70000000000000E-01   0.00000000000000E+00   0.00000000000000E+00   0.00000000000000E+00   0.00000000000000E+00
      0.00000000000000E+00  -7.01967429663021E-17
      3.30000000000000E-01
      0.00000000000000E+00   0.00000000000000E+00   0.00000000000000E+00   0.00000000000000E+00  -1.00211801392278E-13
     -7.12411238248081E-10  -7.12511450049473E-10  -8.45022391311808E-18   1.32000000000000E-01   1.32000000000000E-01
      0.00000000000000E+00   0.00000000000000E+00   0.00000000000000E+00   0.00000000000000E+00   0.00000000000000E+00
      6.04721258520571E-17   3.20000000000000E-01   3.20000000000000E-01   0.00000000000000E+00   0.00000000000000E+00
      7.12517838895479E-10  -6.38884600453076E-15   7.12511450049475E-10   1.97462764224571E-17   1.70000000000000E-01
      1.70000000000000E-01   0.00000000000000E+00   0.00000000000000E+00   0.00000000000000E+00   0.00000000000000E+00
      0.00000000000000E+00  -7.17681783613961E-17
      3.45000000000000E-01
      0.00000000000000E+00   0.00000000000000E+00   0.00000000000000E+00   0.00000000000000E+00  -1.01681078390412E-13
     -7.12898267982532E-10  -7.12999949060922E-10  -8.52165912075331E-18   1.38000000000000E-01   1.38000000000000E-01
      0.00000000000000E+00   0.00000000000000E+00   0.00000000000000E+00   0.00000000000000E+00   0.00000000000000E+00
      6.21792348941883E-17   3.20000000000000E-01   3.20000000000000E-01   0.00000000000000E+00   0.00000000000000E+00
      7.13004845790058E-10  -4.89672913524546E-15   7.12999949060923E-10   1.96821669092360E-17   1.70000000000000E-01
      1.70000000000000E-01   0.00000000000000E+00   0.00000000000000E+00   0.00000000000000E+00   0.00000000000000E+00
      0.00000000000000E+00  -7.33397426826709E-17
      3.60000000000000E-01
      0.00000000000000E+00   0.00000000000000E+00   0.00000000000000E+00   0.00000000000000E+00  -1.03161011863557E-13
     -7.14116460971560E-10  -7.14219621983424E-10  -8.59285923956608E-18   1.44000000000000E-01   1.44000000000000E-01
      0.00000000000000E+00   0.00000000000000E+00   0.00000000000000E+00   0.00000000000000E+00   0.00000000000000E+00
      6.38862205903622E-17   3.20000000000000E-01   3.20000000000000E-01   0.00000000000000E+00   0.00000000000000E+00
      7.14223167678739E-10  -3.54569531592430E-15   7.14219621983423E-10   1.96180696400816E-17   1.70000000000000E-01
      1.70000000000000E-01   0.00000000000000E+00   0.00000000000000E+00   0.00000000000000E+00   0.00000000000000E+00
      0.00000000000000E+00  -7.49114309908778E-17
      3.75000000000000E-01
      0.00000000000000E+00   0.00000000000000E+00   0.00000000000000E+00   0.00000000000000E+00  -1.04651480283146E-13
     -7.16049268095790E-10  -7.16153919576073E-10  -8.66383213562273E-18   1.50000000000000E-01   1.50000000000000E-01
      0.00000000000000E+00   0.00000000000000E+00   0.00000000000000E+00   0.00000000000000E+00   0.00000000000000E+00
      6.55930876196486E-17   3.20000000000000E-01   3.20000000000000E-01   0.00000000000000E+00   0.00000000000000E+00
      7.16156243392137E-10  -2.32381606424994E-15   7.16153919576072E-10   1.95539830834796E-17   1.70000000000000E-01
      1.70000000000000E-01   0.00000000000000E+00   0.00000000000000E+00   0.00000000000000E+00   0.00000000000000E+00
      0.00000000000000E+00  -7.64832385675054E-17
      3.90000000000000E-01
      0.00000000000000E+00   0.00000000000000E+00   0.00000000000000E+00   0.00000000000000E+00  -1.06152358661427E-13
     -7.18681743133373E-10  -7.18787895492034E-10  -8.73458540962664E-18   1.56000000000000E-01   1.56000000000000E-01
      0.00000000000000E+00   0.00000000000000E+00   0.00000000000000E+00   0.00000000000000E+00   0.00000000000000E+00
      6.72998404546157E-17   3.20000000000000E-01   3.20000000000000E-01   0.00000000000000E+00   0.00000000000000E+00
      7.18789115553372E-10  -1.22006133742817E-15   7.18787895492034E-10   1.94899058570889E-17   1.70000000000000E-01
      1.70000000000000E-01   0.00000000000000E+00   0.00000000000000E+00   0.00000000000000E+00   0.00000000000000E+00
      0.00000000000000E+00  -7.80551609020779E-17
      4.05000000000000E-01
      0.00000000000000E+00   0.00000000000000E+00   0.00000000000000E+00   0.00000000000000E+00  -1.07663519555895E-13
     -7.22000504157676E-10  -7.22108167677232E-10  -8.80512640502045E-18   1.62000000000000E-01   1.62000000000000E-01
      0.00000000000000E+00   0.00000000000000E+00   0.00000000000000E+00   0.00000000000000E+00   0.00000000000000E+00
      6.90064833731714E-17   3.20000000000000E-01   3.20000000000000E-01   0.00000000000000E+00   0.00000000000000E+00
      7.22108391935635E-10  -2.24258403127873E-16   7.22108167677232E-10   1.94258367122574E-17   1.70000000000000E-01
      1.70000000000000E-01   0.00000000000000E+00   0.00000000000000E+00   0.00000000000000E+00   0.00000000000000E+00
      0.00000000000000E+00  -7.96271936804083E-17
      4.20000000000000E-01
      0.00000000000000E+00   0.00000000000000E+00   0.00000000000000E+00   0.00000000000000E+00  -1.09184834078491E-13
     -7.25993702370961E-10  -7.26102887205039E-10  -8.87546221593076E-18   1.68000000000000E-01   1.68000000000000E-01
      0.00000000000000E+00   0.00000000000000E+00   0.00000000000000E+00   0.00000000000000E+00   0.00000000000000E+00
      7.07130204695006E-17   3.20000000000000E-01   3.20000000000000E-01   0.00000000000000E+00   0.00000000000000E+00
      7.26102214228599E-10   6.72976440325382E-16   7.26102887205039E-10   1.93617745201494E-17   1.70000000000000E-01
      1.70000000000000E-01   0.00000000000000E+00   0.00000000000000E+00   0.00000000000000E+00   0.00000000000000E+00
      0.00000000000000E+00  -8.11993327737193E-17
      4.35000000000000E-01
      0.00000000000000E+00   0.00000000000000E+00   0.00000000000000E+00   0.00000000000000E+00  -1.10716172892931E-13
     -7.30650998495541E-10  -7.30761714668433E-10  -8.94559969494911E-18   1.74000000000000E-01   1.74000000000000E-01
      0.00000000000000E+00   0.00000000000000E+00   0.00000000000000E+00   0.00000000000000E+00   0.00000000000000E+00
      7.24194556641858E-17   3.20000000000000E-01   3.20000000000000E-01   0.00000000000000E+00   0.00000000000000E+00
      7.30760234384314E-10   1.48028411958359E-15   7.30761714668433E-10   1.92977182593152E-17   1.70000000000000E-01
      1.70000000000000E-01   0.00000000000000E+00   0.00000000000000E+00   0.00000000000000E+00   0.00000000000000E+00
      0.00000000000000E+00  -8.27715742285519E-17
      4.50000000000000E-01
      0.00000000000000E+00   0.00000000000000E+00   0.00000000000000E+00   0.00000000000000E+00  -1.12257407183122E-13
     -7.35963546951003E-10  -7.36075804358186E-10  -9.01554546074498E-18   1.80000000000000E-01   1.80000000000000E-01
      0.00000000000000E+00   0.00000000000000E+00   0.00000000000000E+00   0.00000000000000E+00   0.00000000000000E+00
      7.41257927135868E-17   3.20000000000000E-01   3.20000000000000E-01   0.00000000000000E+00   0.00000000000000E+00
      7.36073598736975E-10   2.20562121119406E-15   7.36075804358186E-10   1.92336670045492E-17   1.70000000000000E-01
      1.70000000000000E-01   0.00000000000000E+00   0.00000000000000E+00   0.00000000000000E+00   0.00000000000000E+00
      0.00000000000000E+00  -8.43439142573910E-17
      4.65000000000000E-01
      0.00000000000000E+00   0.00000000000000E+00   0.00000000000000E+00   0.00000000000000E+00  -1.13808409575849E-13
     -7.41923988012067E-10  -7.42037796421643E-10  -9.08530590550722E-18   1.86000000000000E-01   1.86000000000000E-01
      0.00000000000000E+00   0.00000000000000E+00   0.00000000000000E+00   0.00000000000000E+00   0.00000000000000E+00
      7.58320352185489E-17   3.20000000000000E-01   3.20000000000000E-01   0.00000000000000E+00   0.00000000000000E+00
      7.42034940117177E-10   2.85630446597264E-15   7.42037796421643E-10   1.91696199169024E-17   1.70000000000000E-01
      1.70000000000000E-01   0.00000000000000E+00   0.00000000000000E+00   0.00000000000000E+00   0.00000000000000E+00
      0.00000000000000E+00  -8.59163492299441E-17
      4.80000000000000E-01
      0.00000000000000E+00   0.00000000000000E+00   0.00000000000000E+00   0.00000000000000E+00  -1.15369055001651E-13
     -7.48526448212617E-10  -7.48641817267618E-10  -9.15488720221111E-18   1.92000000000000E-01   1.92000000000000E-01
      0.00000000000000E+00   0.00000000000000E+00   0.00000000000000E+00   0.00000000000000E+00   0.00000000000000E+00
      7.75381866325005E-17   3.20000000000000E-01   3.20000000000000E-01   0.00000000000000E+00   0.00000000000000E+00
      7.48638378210443E-10   3.43905717579658E-15   7.48641817267618E-10   1.91055762347253E-17   1.70000000000000E-01
      1.70000000000000E-01   0.00000000000000E+00   0.00000000000000E+00   0.00000000000000E+00   0.00000000000000E+00
      0.00000000000000E+00  -8.74888756650147E-17
      4.95000000000000E-01
      0.00000000000000E+00   0.00000000000000E+00   0.00000000000000E+00   0.00000000000000E+00  -1.16939221479160E-13
     -7.55766549269859E-10  -7.55883488491338E-10  -9.22429531170960E-18   1.98000000000000E-01   1.98000000000000E-01
      0.00000000000000E+00   0.00000000000000E+00   0.00000000000000E+00   0.00000000000000E+00   0.00000000000000E+00
      7.92442502689954E-17   3.20000000000000E-01   3.20000000000000E-01   0.00000000000000E+00   0.00000000000000E+00
      7.55879528442837E-10   3.96004850186795E-15   7.55883488491338E-10   1.90415352656339E-17   1.70000000000000E-01
      1.70000000000000E-01   0.00000000000000E+00   0.00000000000000E+00   0.00000000000000E+00   0.00000000000000E+00
      0.00000000000000E+00  -8.90614902229197E-17
      5.10000000000000E-01
      0.00000000000000E+00   0.00000000000000E+00   0.00000000000000E+00   0.00000000000000E+00  -1.18518790809844E-13
     -7.63641425863354E-10  -7.63759944654163E-10  -9.29353598964743E-18   2.04000000000000E-01   2.04000000000000E-01
      0.00000000000000E+00   0.00000000000000E+00   0.00000000000000E+00   0.00000000000000E+00   0.00000000000000E+00
      8.09502293087485E-17   3.20000000000000E-01   3.20000000000000E-01   0.00000000000000E+00   0.00000000000000E+00
      7.63755519714158E-10   4.42494000522819E-15   7.63759944654163E-10   1.89774963793021E-17   1.70000000000000E-01
      1.70000000000000E-01   0.00000000000000E+00   0.00000000000000E+00   0.00000000000000E+00   0.00000000000000E+00
      0.00000000000000E+00  -9.06341896984033E-17
      5.25000000000000E-01
      0.00000000000000E+00   0.00000000000000E+00   0.00000000000000E+00   0.00000000000000E+00  -1.20107649172299E-13
     -7.72149752609544E-10  -7.72269860258716E-10  -9.36261479319777E-18   2.10000000000000E-01   2.10000000000000E-01
      0.00000000000000E+00   0.00000000000000E+00   0.00000000000000E+00   0.00000000000000E+00   0.00000000000000E+00
      8.26561268062112E-17   3.20000000000000E-01   3.20000000000000E-01   0.00000000000000E+00   0.00000000000000E+00
      7.72265021342880E-10   4.83891583691369E-15   7.72269860258717E-10   1.89134590009929E-17   1.70000000000000E-01
      1.70000000000000E-01   0.00000000000000E+00   0.00000000000000E+00   0.00000000000000E+00   0.00000000000000E+00
      0.00000000000000E+00  -9.22069710140062E-17
      5.40000000000000E-01
      0.00000000000000E+00   0.00000000000000E+00   0.00000000000000E+00   0.00000000000000E+00  -1.21705687607540E-13
     -7.81291780675069E-10  -7.81413486362677E-10  -9.43153708762164E-18   2.16000000000000E-01   2.16000000000000E-01
      0.00000000000000E+00   0.00000000000000E+00   0.00000000000000E+00   0.00000000000000E+00   0.00000000000000E+00
      8.43619456957230E-17   3.20000000000000E-01   3.20000000000000E-01   0.00000000000000E+00   0.00000000000000E+00
      7.81408279637737E-10   5.20672493868255E-15   7.81413486362675E-10   1.88494226057507E-17   1.70000000000000E-01
      1.70000000000000E-01   0.00000000000000E+00   0.00000000000000E+00   0.00000000000000E+00   0.00000000000000E+00
      0.00000000000000E+00  -9.37798312138520E-17
      5.55000000000000E-01
      0.00000000000000E+00   0.00000000000000E+00   0.00000000000000E+00   0.00000000000000E+00  -1.23312802389389E-13