DF-ISE text

Info {
  version   = 1.0
  type      = xyplot
  datasets  = [
    "time"
    "source OuterVoltage" "source InnerVoltage" "source QuasiFermiPotential" "source DisplacementCurrent" "source eCurrent"
    "source hCurrent" "source TotalCurrent" "source Charge" "topGate OuterVoltage" "topGate InnerVoltage"
    "topGate QuasiFermiPotential" "topGate DisplacementCurrent" "topGate eCurrent" "topGate hCurrent" "topGate TotalCurrent"
    "topGate Charge" "drain OuterVoltage" "drain InnerVoltage" "drain QuasiFermiPotential" "drain DisplacementCurrent"
    "drain eCurrent" "drain hCurrent" "drain TotalCurrent" "drain Charge" "bottomGate OuterVoltage"
    "bottomGate InnerVoltage" "bottomGate QuasiFermiPotential" "bottomGate DisplacementCurrent" "bottomGate eCurrent" "bottomGate hCurrent"
    "bottomGate TotalCurrent" "bottomGate Charge" ]
  functions = [
    Time
    OuterVoltage InnerVoltage QuasiFermiPotential DisplacementCurrent eCurrent
    hCurrent TotalCurrent Charge OuterVoltage InnerVoltage
    QuasiFermiPotential DisplacementCurrent eCurrent hCurrent TotalCurrent
    Charge OuterVoltage InnerVoltage QuasiFermiPotential DisplacementCurrent
    eCurrent hCurrent TotalCurrent Charge OuterVoltage
    InnerVoltage QuasiFermiPotential DisplacementCurrent eCurrent hCurrent
    TotalCurrent Charge ]
}

Data {
      1.50000000000000E-02
      0.00000000000000E+00   0.00000000000000E+00   0.00000000000000E+00   0.00000000000000E+00  -4.50557049073052E-14
     -4.73050121299870E-09  -4.73054626870361E-09  -4.86247672728817E-18   6.00000000000000E-03   6.00000000000000E-03
      0.00000000000000E+00   0.00000000000000E+00   0.00000000000000E+00   0.00000000000000E+00   0.00000000000000E+00
      6.07789930666476E-17   3.40000000000000E-01   3.40000000000000E-01   0.00000000000000E+00   0.00000000000000E+00
      4.73174588421986E-09  -1.19961551625007E-12   4.73054626870361E-09   2.32111716450304E-17   3.00000000000000E-02
      3.00000000000000E-02   0.00000000000000E+00   0.00000000000000E+00   0.00000000000000E+00   0.00000000000000E+00
      0.00000000000000E+00  -7.91276879843898E-17
      3.00000000000000E-02
      0.00000000000000E+00   0.00000000000000E+00   0.00000000000000E+00   0.00000000000000E+00  -4.61567421176422E-14
     -4.68352636480293E-09  -4.68357252154504E-09  -4.95765083665523E-18   1.20000000000000E-02   1.20000000000000E-02
      0.00000000000000E+00   0.00000000000000E+00   0.00000000000000E+00   0.00000000000000E+00   0.00000000000000E+00
      6.25071281144276E-17   3.40000000000000E-01   3.40000000000000E-01   0.00000000000000E+00   0.00000000000000E+00
      4.68469026264831E-09  -1.11774110326522E-12   4.68357252154505E-09   2.31275071724525E-17   3.00000000000000E-02
      3.00000000000000E-02   0.00000000000000E+00   0.00000000000000E+00   0.00000000000000E+00   0.00000000000000E+00
      0.00000000000000E+00  -8.06769844502248E-17
      4.50000000000000E-02
      0.00000000000000E+00   0.00000000000000E+00   0.00000000000000E+00   0.00000000000000E+00  -4.72565115146278E-14
     -4.64051593374834E-09  -4.64056319025985E-09  -5.05188782698225E-18   1.80000000000000E-02   1.80000000000000E-02
      0.00000000000000E+00   0.00000000000000E+00   0.00000000000000E+00   0.00000000000000E+00   0.00000000000000E+00
      6.42338868282111E-17   3.40000000000000E-01   3.40000000000000E-01   0.00000000000000E+00   0.00000000000000E+00
      4.64160404372985E-09  -1.04085346999807E-12   4.64056319025985E-09   2.30457480990329E-17   3.00000000000000E-02
      3.00000000000000E-02   0.00000000000000E+00   0.00000000000000E+00   0.00000000000000E+00   0.00000000000000E+00
      0.00000000000000E+00  -8.22277471002618E-17
      6.00000000000000E-02
      0.00000000000000E+00   0.00000000000000E+00   0.00000000000000E+00   0.00000000000000E+00  -4.83558159495606E-14
     -4.60136678274058E-09  -4.60141513855653E-09  -5.14520899571272E-18   2.40000000000000E-02   2.40000000000000E-02
      0.00000000000000E+00   0.00000000000000E+00   0.00000000000000E+00   0.00000000000000E+00   0.00000000000000E+00
      6.59593692043898E-17   3.40000000000000E-01   3.40000000000000E-01   0.00000000000000E+00   0.00000000000000E+00
      4.60238382519438E-09  -9.68686637849327E-13   4.60141513855653E-09   2.29657102013209E-17   3.00000000000000E-02
      3.00000000000000E-02   0.00000000000000E+00   0.00000000000000E+00   0.00000000000000E+00   0.00000000000000E+00
      0.00000000000000E+00  -8.37798704099980E-17
      7.50000000000000E-02
      0.00000000000000E+00   0.00000000000000E+00   0.00000000000000E+00   0.00000000000000E+00  -4.94553952834653E-14
     -4.56598053224031E-09  -4.56602998763559E-09  -5.23763592100131E-18   3.00000000000000E-02   3.00000000000000E-02
      0.00000000000000E+00   0.00000000000000E+00   0.00000000000000E+00   0.00000000000000E+00   0.00000000000000E+00
      6.76836666282364E-17   3.40000000000000E-01   3.40000000000000E-01   0.00000000000000E+00   0.00000000000000E+00
      4.56693097407349E-09  -9.00986437886691E-13   4.56602998763560E-09   2.28872269605365E-17   3.00000000000000E-02
      3.00000000000000E-02   0.00000000000000E+00   0.00000000000000E+00   0.00000000000000E+00   0.00000000000000E+00
      0.00000000000000E+00  -8.53332576677716E-17
      9.00000000000000E-02
      0.00000000000000E+00   0.00000000000000E+00   0.00000000000000E+00   0.00000000000000E+00  -5.05559192814748E-14
     -4.53426344454448E-09  -4.53431400046376E-09  -5.32919036332295E-18   3.60000000000000E-02   3.60000000000000E-02
      0.00000000000000E+00   0.00000000000000E+00   0.00000000000000E+00   0.00000000000000E+00   0.00000000000000E+00
      6.94068626653235E-17   3.40000000000000E-01   3.40000000000000E-01   0.00000000000000E+00   0.00000000000000E+00
      4.53515151061700E-09  -8.37510153230420E-13   4.53431400046377E-09   2.28101478980161E-17   3.00000000000000E-02
      3.00000000000000E-02   0.00000000000000E+00   0.00000000000000E+00   0.00000000000000E+00   0.00000000000000E+00
      0.00000000000000E+00  -8.68878202000167E-17
      1.05000000000000E-01
      0.00000000000000E+00   0.00000000000000E+00   0.00000000000000E+00   0.00000000000000E+00  -5.16579809736639E-14
     -4.50612631096277E-09  -4.50617796894374E-09  -5.41989417736733E-18   4.20000000000000E-02   4.20000000000000E-02
      0.00000000000000E+00   0.00000000000000E+00   0.00000000000000E+00   0.00000000000000E+00   0.00000000000000E+00
      7.11290337814896E-17   3.40000000000000E-01   3.40000000000000E-01   0.00000000000000E+00   0.00000000000000E+00
      4.50695599510348E-09  -7.78026159748083E-13   4.50617796894373E-09   2.27343370582337E-17   3.00000000000000E-02
      3.00000000000000E-02   0.00000000000000E+00   0.00000000000000E+00   0.00000000000000E+00   0.00000000000000E+00
      0.00000000000000E+00  -8.84434766623560E-17
      1.20000000000000E-01
      0.00000000000000E+00   0.00000000000000E+00   0.00000000000000E+00   0.00000000000000E+00  -5.27620906416185E-14
     -4.48148434270179E-09  -4.48153710479243E-09  -5.50976923348179E-18   4.80000000000000E-02   4.80000000000000E-02
      0.00000000000000E+00   0.00000000000000E+00   0.00000000000000E+00   0.00000000000000E+00   0.00000000000000E+00
      7.28502499970641E-17   3.40000000000000E-01   3.40000000000000E-01   0.00000000000000E+00   0.00000000000000E+00
      4.48225941821132E-09  -7.22313418883381E-13   4.48153710479243E-09   2.26596716282171E-17   3.00000000000000E-02
      3.00000000000000E-02   0.00000000000000E+00   0.00000000000000E+00   0.00000000000000E+00   0.00000000000000E+00
      0.00000000000000E+00  -9.00001523917994E-17
      1.35000000000000E-01
      0.00000000000000E+00   0.00000000000000E+00   0.00000000000000E+00   0.00000000000000E+00  -5.38686706210115E-14
     -4.46025706561234E-09  -4.46031093428296E-09  -5.59883734794107E-18   5.40000000000000E-02   5.40000000000000E-02
      0.00000000000000E+00   0.00000000000000E+00   0.00000000000000E+00   0.00000000000000E+00   0.00000000000000E+00
      7.45705754807821E-17   3.40000000000000E-01   3.40000000000000E-01   0.00000000000000E+00   0.00000000000000E+00
      4.46098109558237E-09  -6.70161299411585E-13   4.46031093428296E-09   2.25860406826195E-17   3.00000000000000E-02
      3.00000000000000E-02   0.00000000000000E+00   0.00000000000000E+00   0.00000000000000E+00   0.00000000000000E+00
      0.00000000000000E+00  -9.15577788154606E-17
      1.50000000000000E-01
      0.00000000000000E+00   0.00000000000000E+00   0.00000000000000E+00   0.00000000000000E+00  -5.49780511275176E-14
     -4.44236821990257E-09  -4.44242319795370E-09  -5.68712022134555E-18   6.00000000000000E-02   6.00000000000000E-02
      0.00000000000000E+00   0.00000000000000E+00   0.00000000000000E+00   0.00000000000000E+00   0.00000000000000E+00
      7.62900690885077E-17   3.40000000000000E-01   3.40000000000000E-01   0.00000000000000E+00   0.00000000000000E+00
      4.44304456718790E-09  -6.21369234203543E-13   4.44242319795370E-09   2.25133440442312E-17   3.00000000000000E-02
      3.00000000000000E-02   0.00000000000000E+00   0.00000000000000E+00   0.00000000000000E+00   0.00000000000000E+00
      0.00000000000000E+00  -9.31162929113933E-17
      1.65000000000000E-01
      0.00000000000000E+00   0.00000000000000E+00   0.00000000000000E+00   0.00000000000000E+00  -5.60904673149907E-14
     -4.42774566562271E-09  -4.42780175609003E-09  -5.77463938447893E-18   6.60000000000000E-02   6.60000000000000E-02
      0.00000000000000E+00   0.00000000000000E+00   0.00000000000000E+00   0.00000000000000E+00   0.00000000000000E+00
      7.80087848515572E-17   3.40000000000000E-01   3.40000000000000E-01   0.00000000000000E+00   0.00000000000000E+00
      4.42837750209723E-09  -5.75746007206213E-13   4.42780175609002E-09   2.24414912502869E-17   3.00000000000000E-02
      3.00000000000000E-02   0.00000000000000E+00   0.00000000000000E+00   0.00000000000000E+00   0.00000000000000E+00
      0.00000000000000E+00  -9.46756367173651E-17
      1.80000000000000E-01
      0.00000000000000E+00   0.00000000000000E+00   0.00000000000000E+00   0.00000000000000E+00  -5.72060577607341E-14
     -4.41632129357935E-09  -4.41637849963711E-09  -5.86141615098869E-18   7.20000000000000E-02   7.20000000000000E-02
      0.00000000000000E+00   0.00000000000000E+00   0.00000000000000E+00   0.00000000000000E+00   0.00000000000000E+00
      7.97267724190890E-17   3.40000000000000E-01   3.40000000000000E-01   0.00000000000000E+00   0.00000000000000E+00
      4.41691160925523E-09  -5.33109618116920E-13   4.41637849963711E-09   2.23704006155239E-17   3.00000000000000E-02
      3.00000000000000E-02   0.00000000000000E+00   0.00000000000000E+00   0.00000000000000E+00   0.00000000000000E+00
      0.00000000000000E+00  -9.62357568836242E-17
      1.95000000000000E-01
      0.00000000000000E+00   0.00000000000000E+00   0.00000000000000E+00   0.00000000000000E+00  -5.83248645439490E-14
     -4.40803094266682E-09  -4.40808926753136E-09  -5.94747157628765E-18   7.80000000000000E-02   7.80000000000000E-02
      0.00000000000000E+00   0.00000000000000E+00   0.00000000000000E+00   0.00000000000000E+00   0.00000000000000E+00
      8.14440774586945E-17   3.40000000000000E-01   3.40000000000000E-01   0.00000000000000E+00   0.00000000000000E+00
      4.40858255489379E-09  -4.93287362429099E-13   4.40808926753136E-09   2.22999983835532E-17   3.00000000000000E-02
      3.00000000000000E-02   0.00000000000000E+00   0.00000000000000E+00   0.00000000000000E+00   0.00000000000000E+00
      0.00000000000000E+00  -9.77966042659601E-17
      2.10000000000000E-01
      0.00000000000000E+00   0.00000000000000E+00   0.00000000000000E+00   0.00000000000000E+00  -5.94468350425286E-14
     -4.40281432571017E-09  -4.40287377254522E-09  -6.03282642211223E-18   8.40000000000000E-02   8.40000000000000E-02
      0.00000000000000E+00   0.00000000000000E+00   0.00000000000000E+00   0.00000000000000E+00   0.00000000000000E+00
      8.31607420190085E-17   3.40000000000000E-01   3.40000000000000E-01   0.00000000000000E+00   0.00000000000000E+00
      4.40332988723756E-09  -4.56114692346787E-13   4.40287377254521E-09   2.22302179587111E-17   3.00000000000000E-02
      3.00000000000000E-02   0.00000000000000E+00   0.00000000000000E+00   0.00000000000000E+00   0.00000000000000E+00
      0.00000000000000E+00  -9.93581335556074E-17
      2.25000000000000E-01
      0.00000000000000E+00   0.00000000000000E+00   0.00000000000000E+00   0.00000000000000E+00  -6.05718255228476E-14
     -4.40061496215970E-09  -4.40067553398522E-09  -6.11750112620902E-18   9.00000000000000E-02   9.00000000000000E-02
      0.00000000000000E+00   0.00000000000000E+00   0.00000000000000E+00   0.00000000000000E+00   0.00000000000000E+00
      8.48768048578519E-17   3.40000000000000E-01   3.40000000000000E-01   0.00000000000000E+00   0.00000000000000E+00
      4.40109696921545E-09  -4.21435230236229E-13   4.40067553398522E-09   2.21609992111465E-17   3.00000000000000E-02
      3.00000000000000E-02   0.00000000000000E+00   0.00000000000000E+00   0.00000000000000E+00   0.00000000000000E+00
      0.00000000000000E+00  -1.00920302942789E-16
      2.40000000000000E-01
      0.00000000000000E+00   0.00000000000000E+00   0.00000000000000E+00   0.00000000000000E+00  -6.16996065411040E-14
     -4.40138011930633E-09  -4.40144181891288E-09  -6.20151577665875E-18   9.60000000000000E-02   9.60000000000000E-02
      0.00000000000000E+00   0.00000000000000E+00   0.00000000000000E+00   0.00000000000000E+00   0.00000000000000E+00
      8.65923017391256E-17   3.40000000000000E-01   3.40000000000000E-01   0.00000000000000E+00   0.00000000000000E+00
      4.40183091995867E-09  -3.89101045789043E-13   4.40144181891288E-09   2.20922878484666E-17   3.00000000000000E-02
      3.00000000000000E-02   0.00000000000000E+00   0.00000000000000E+00   0.00000000000000E+00   0.00000000000000E+00
      0.00000000000000E+00  -1.02483073810933E-16
      2.55000000000000E-01
      0.00000000000000E+00   0.00000000000000E+00   0.00000000000000E+00   0.00000000000000E+00  -6.28298701163424E-14
     -4.40506076498056E-09  -4.40512359485068E-09  -6.28489009038311E-18   1.02000000000000E-01   1.02000000000000E-01
      0.00000000000000E+00   0.00000000000000E+00   0.00000000000000E+00   0.00000000000000E+00   0.00000000000000E+00
      8.83072657014018E-17   3.40000000000000E-01   3.40000000000000E-01   0.00000000000000E+00   0.00000000000000E+00
      4.40548256595410E-09  -3.58971103418020E-13   4.40512359485068E-09   2.20240348478084E-17   3.00000000000000E-02
      3.00000000000000E-02   0.00000000000000E+00   0.00000000000000E+00   0.00000000000000E+00   0.00000000000000E+00
      0.00000000000000E+00  -1.04046410458827E-16
      2.70000000000000E-01
      0.00000000000000E+00   0.00000000000000E+00   0.00000000000000E+00   0.00000000000000E+00  -6.39622385782083E-14
     -4.41161152873845E-09  -4.41167549097703E-09  -6.36764339541362E-18   1.08000000000000E-01   1.08000000000000E-01
      0.00000000000000E+00   0.00000000000000E+00   0.00000000000000E+00   0.00000000000000E+00   0.00000000000000E+00
      9.00217273009002E-17   3.40000000000000E-01   3.40000000000000E-01   0.00000000000000E+00   0.00000000000000E+00
      4.41200640283096E-09  -3.30911853927502E-13   4.41167549097704E-09   2.19561959427090E-17   3.00000000000000E-02
      3.00000000000000E-02   0.00000000000000E+00   0.00000000000000E+00   0.00000000000000E+00   0.00000000000000E+00
      0.00000000000000E+00  -1.05610279848196E-16
      2.85000000000000E-01
      0.00000000000000E+00   0.00000000000000E+00   0.00000000000000E+00   0.00000000000000E+00  -6.50962749399502E-14
     -4.42099067574322E-09  -4.42105577201816E-09  -6.44979461653678E-18   1.14000000000000E-01   1.14000000000000E-01
      0.00000000000000E+00   0.00000000000000E+00   0.00000000000000E+00   0.00000000000000E+00   0.00000000000000E+00
      9.17357148312975E-17   3.40000000000000E-01   3.40000000000000E-01   0.00000000000000E+00   0.00000000000000E+00
      4.42136056888928E-09  -3.04796871120891E-13   4.42105577201816E-09   2.18887311596359E-17   3.00000000000000E-02
      3.00000000000000E-02   0.00000000000000E+00   0.00000000000000E+00   0.00000000000000E+00   0.00000000000000E+00
      0.00000000000000E+00  -1.07174651374397E-16
      3.00000000000000E-01
      0.00000000000000E+00   0.00000000000000E+00   0.00000000000000E+00   0.00000000000000E+00  -6.62314946014099E-14
     -4.43316009397808E-09  -4.43322632547268E-09  -6.53136226396064E-18   1.20000000000000E-01   1.20000000000000E-01
      0.00000000000000E+00   0.00000000000000E+00   0.00000000000000E+00   0.00000000000000E+00   0.00000000000000E+00
      9.34492545225957E-17   3.40000000000000E-01   3.40000000000000E-01   0.00000000000000E+00   0.00000000000000E+00
      4.43350683163344E-09  -2.80506160764625E-13   4.43322632547267E-09   2.18216043994816E-17   3.00000000000000E-02
      3.00000000000000E-02   0.00000000000000E+00   0.00000000000000E+00   0.00000000000000E+00   0.00000000000000E+00
      0.00000000000000E+00  -1.08739496658117E-16
      3.15000000000000E-01
      0.00000000000000E+00   0.00000000000000E+00   0.00000000000000E+00   0.00000000000000E+00  -6.73673781499163E-14
     -4.44808529504467E-09  -4.44815266242282E-09  -6.61236442467834E-18   1.26000000000000E-01   1.26000000000000E-01
      0.00000000000000E+00   0.00000000000000E+00   0.00000000000000E+00   0.00000000000000E+00   0.00000000000000E+00
      9.51623707210708E-17   3.40000000000000E-01   3.40000000000000E-01   0.00000000000000E+00   0.00000000000000E+00
      4.44841058875342E-09  -2.57926330602482E-13   4.44815266242282E-09   2.17547830597458E-17   3.00000000000000E-02
      3.00000000000000E-02   0.00000000000000E+00   0.00000000000000E+00   0.00000000000000E+00   0.00000000000000E+00
      0.00000000000000E+00  -1.10304789356138E-16
      3.30000000000000E-01
      0.00000000000000E+00   0.00000000000000E+00   0.00000000000000E+00   0.00000000000000E+00  -6.85033849998592E-14
     -4.46573543190133E-09  -4.46580393528633E-09  -6.69281875623288E-18   1.32000000000000E-01   1.32000000000000E-01
      0.00000000000000E+00   0.00000000000000E+00   0.00000000000000E+00   0.00000000000000E+00   0.00000000000000E+00
      9.68750860521334E-17   3.40000000000000E-01   3.40000000000000E-01   0.00000000000000E+00   0.00000000000000E+00
      4.46604088520166E-09  -2.36949915326156E-13   4.46580393528633E-09   2.16882376935142E-17   3.00000000000000E-02
      3.00000000000000E-02   0.00000000000000E+00   0.00000000000000E+00   0.00000000000000E+00   0.00000000000000E+00
      0.00000000000000E+00  -1.11870504989415E-16
      3.45000000000000E-01
      0.00000000000000E+00   0.00000000000000E+00   0.00000000000000E+00   0.00000000000000E+00  -6.96389675948551E-14
     -4.48608333388858E-09  -4.48615297285617E-09  -6.77274248261307E-18   1.38000000000000E-01   1.38000000000000E-01
      0.00000000000000E+00   0.00000000000000E+00   0.00000000000000E+00   0.00000000000000E+00   0.00000000000000E+00
      9.85874215677627E-17   3.40000000000000E-01   3.40000000000000E-01   0.00000000000000E+00   0.00000000000000E+00
      4.48637044824542E-09  -2.17475389257697E-13   4.48615297285616E-09   2.16219417016987E-17   3.00000000000000E-02
      3.00000000000000E-02   0.00000000000000E+00   0.00000000000000E+00   0.00000000000000E+00   0.00000000000000E+00
      0.00000000000000E+00  -1.13436620786848E-16
      3.60000000000000E-01
      0.00000000000000E+00   0.00000000000000E+00   0.00000000000000E+00   0.00000000000000E+00  -7.07735858894673E-14
     -4.50910556228404E-09  -4.50917633586992E-09  -6.85215239203614E-18   1.44000000000000E-01   1.44000000000000E-01
      0.00000000000000E+00   0.00000000000000E+00   0.00000000000000E+00   0.00000000000000E+00   0.00000000000000E+00
      1.00299396880015E-16   3.40000000000000E-01   3.40000000000000E-01   0.00000000000000E+00   0.00000000000000E+00
      4.50937574263439E-09  -1.99406764463540E-13   4.50917633586993E-09   2.15558710553288E-17   3.00000000000000E-02
      3.00000000000000E-02   0.00000000000000E+00   0.00000000000000E+00   0.00000000000000E+00   0.00000000000000E+00
      0.00000000000000E+00  -1.15003115543307E-16
      3.75000000000000E-01
      0.00000000000000E+00   0.00000000000000E+00   0.00000000000000E+00   0.00000000000000E+00  -7.19067218296276E-14
     -4.53478248833634E-09  -4.53485439505817E-09  -6.93106483639479E-18   1.50000000000000E-01   1.50000000000000E-01
      0.00000000000000E+00   0.00000000000000E+00   0.00000000000000E+00   0.00000000000000E+00   0.00000000000000E+00
      1.02011030281962E-16   3.40000000000000E-01   3.40000000000000E-01   0.00000000000000E+00   0.00000000000000E+00
      4.53503704830950E-09  -1.82653251332032E-13   4.53485439505816E-09   2.14900040449858E-17   3.00000000000000E-02
      3.00000000000000E-02   0.00000000000000E+00   0.00000000000000E+00   0.00000000000000E+00   0.00000000000000E+00
      0.00000000000000E+00  -1.16569969490553E-16
      3.90000000000000E-01
      0.00000000000000E+00   0.00000000000000E+00   0.00000000000000E+00   0.00000000000000E+00  -7.30378935610856E-14
     -4.56309839607242E-09  -4.56317143396599E-09  -7.00949573216741E-18   1.56000000000000E-01   1.56000000000000E-01
      0.00000000000000E+00   0.00000000000000E+00   0.00000000000000E+00   0.00000000000000E+00   0.00000000000000E+00
      1.03722338857293E-16   3.40000000000000E-01   3.40000000000000E-01   0.00000000000000E+00   0.00000000000000E+00
      4.56333856339275E-09  -1.67129426759504E-13   4.56317143396599E-09   2.14243210547427E-17   3.00000000000000E-02
      3.00000000000000E-02   0.00000000000000E+00   0.00000000000000E+00   0.00000000000000E+00   0.00000000000000E+00
      0.00000000000000E+00  -1.18137164179868E-16
      4.05000000000000E-01
      0.00000000000000E+00   0.00000000000000E+00   0.00000000000000E+00   0.00000000000000E+00  -7.41666691119879E-14
     -4.59404161445471E-09  -4.59411578112382E-09  -7.08746056261031E-18   1.62000000000000E-01   1.62000000000000E-01
      0.00000000000000E+00   0.00000000000000E+00   0.00000000000000E+00   0.00000000000000E+00   0.00000000000000E+00
      1.05433338579681E-16   3.40000000000000E-01   3.40000000000000E-01   0.00000000000000E+00   0.00000000000000E+00
      4.59426853553742E-09  -1.52754413595922E-13   4.59411578112383E-09   2.13588043582250E-17   3.00000000000000E-02
      3.00000000000000E-02   0.00000000000000E+00   0.00000000000000E+00   0.00000000000000E+00   0.00000000000000E+00
      0.00000000000000E+00  -1.19704682375296E-16
      4.20000000000000E-01
      0.00000000000000E+00   0.00000000000000E+00   0.00000000000000E+00   0.00000000000000E+00  -7.52926793175052E-14
     -4.62760468019046E-09  -4.62767997286978E-09  -7.16497438106782E-18   1.68000000000000E-01   1.68000000000000E-01
      0.00000000000000E+00   0.00000000000000E+00   0.00000000000000E+00   0.00000000000000E+00   0.00000000000000E+00
      1.07144044402916E-16   3.40000000000000E-01   3.40000000000000E-01   0.00000000000000E+00   0.00000000000000E+00
      4.62781942508149E-09  -1.39452211717147E-13   4.62767997286978E-09   2.12934379346336E-17   3.00000000000000E-02
      3.00000000000000E-02   0.00000000000000E+00   0.00000000000000E+00   0.00000000000000E+00   0.00000000000000E+00
      0.00000000000000E+00  -1.21272507956482E-16
      4.35000000000000E-01
      0.00000000000000E+00   0.00000000000000E+00   0.00000000000000E+00   0.00000000000000E+00  -7.64156297797843E-14
     -4.66378453717239E-09  -4.66386095280217E-09  -7.24205181525285E-18   1.74000000000000E-01   1.74000000000000E-01
      0.00000000000000E+00   0.00000000000000E+00   0.00000000000000E+00   0.00000000000000E+00   0.00000000000000E+00
      1.08854470342707E-16   3.40000000000000E-01   3.40000000000000E-01   0.00000000000000E+00   0.00000000000000E+00
      4.66398810383342E-09  -1.27151031251171E-13   4.66386095280217E-09   2.12282073027784E-17   3.00000000000000E-02
      3.00000000000000E-02   0.00000000000000E+00   0.00000000000000E+00   0.00000000000000E+00   0.00000000000000E+00
      0.00000000000000E+00  -1.22840625830233E-16
      4.50000000000000E-01
      0.00000000000000E+00   0.00000000000000E+00   0.00000000000000E+00   0.00000000000000E+00  -7.75353116842369E-14
     -4.70258277504740E-09  -4.70266031035909E-09  -7.31870707236533E-18   1.80000000000000E-01   1.80000000000000E-01
      0.00000000000000E+00   0.00000000000000E+00   0.00000000000000E+00   0.00000000000000E+00   0.00000000000000E+00
      1.10564629550967E-16   3.40000000000000E-01   3.40000000000000E-01   0.00000000000000E+00   0.00000000000000E+00
      4.70277609372507E-09  -1.15783365987002E-13   4.70266031035908E-09   2.11630993713598E-17   3.00000000000000E-02
      3.00000000000000E-02   0.00000000000000E+00   0.00000000000000E+00   0.00000000000000E+00   0.00000000000000E+00
      0.00000000000000E+00  -1.24409021849962E-16
      4.65000000000000E-01
      0.00000000000000E+00   0.00000000000000E+00   0.00000000000000E+00   0.00000000000000E+00  -7.86516113216506E-14
     -4.74400591272933E-09  -4.74408456434065E-09  -7.39495394492953E-18   1.86000000000000E-01   1.86000000000000E-01
      0.00000000000000E+00   0.00000000000000E+00   0.00000000000000E+00   0.00000000000000E+00   0.00000000000000E+00
      1.12274534383314E-16   3.40000000000000E-01   3.40000000000000E-01   0.00000000000000E+00   0.00000000000000E+00
      4.74418984998825E-09  -1.05285647601917E-13   4.74408456434065E-09   2.10981023039056E-17   3.00000000000000E-02
      3.00000000000000E-02   0.00000000000000E+00   0.00000000000000E+00   0.00000000000000E+00   0.00000000000000E+00
      0.00000000000000E+00  -1.25977682742290E-16
      4.80000000000000E-01
      0.00000000000000E+00   0.00000000000000E+00   0.00000000000000E+00   0.00000000000000E+00  -7.97645181942065E-14
     -4.78806573128716E-09  -4.78814549580536E-09  -7.47080581724342E-18   1.92000000000000E-01   1.92000000000000E-01
      0.00000000000000E+00   0.00000000000000E+00   0.00000000000000E+00   0.00000000000000E+00   0.00000000000000E+00
      1.13984196460441E-16   3.40000000000000E-01   3.40000000000000E-01   0.00000000000000E+00   0.00000000000000E+00
      4.78824109394605E-09  -9.55981406899579E-14   4.78814549580536E-09   2.10332053969255E-17   3.00000000000000E-02
      3.00000000000000E-02   0.00000000000000E+00   0.00000000000000E+00   0.00000000000000E+00   0.00000000000000E+00
      0.00000000000000E+00  -1.27546596040123E-16
      4.95000000000000E-01
      0.00000000000000E+00   0.00000000000000E+00   0.00000000000000E+00   0.00000000000000E+00  -8.08741316116212E-14
     -4.83477966215622E-09  -4.83486053628783E-09  -7.54627567234468E-18   1.98000000000000E-01   1.98000000000000E-01
      0.00000000000000E+00   0.00000000000000E+00   0.00000000000000E+00   0.00000000000000E+00   0.00000000000000E+00
      1.15693626723966E-16   3.40000000000000E-01   3.40000000000000E-01   0.00000000000000E+00   0.00000000000000E+00
      4.83494720095274E-09  -8.66646649025807E-14   4.83486053628784E-09   2.09683989699855E-17   3.00000000000000E-02
      3.00000000000000E-02   0.00000000000000E+00   0.00000000000000E+00   0.00000000000000E+00   0.00000000000000E+00
      0.00000000000000E+00  -1.29115750021607E-16
      5.10000000000000E-01
      0.00000000000000E+00   0.00000000000000E+00   0.00000000000000E+00   0.00000000000000E+00  -8.19806657097884E-14
     -4.88417123630861E-09  -4.88425321697432E-09  -7.62137609940804E-18   2.04000000000000E-01   2.04000000000000E-01
      0.00000000000000E+00   0.00000000000000E+00   0.00000000000000E+00   0.00000000000000E+00   0.00000000000000E+00
      1.17402835487282E-16   3.40000000000000E-01   3.40000000000000E-01   0.00000000000000E+00   0.00000000000000E+00
      4.88433164946244E-09  -7.84324881252841E-14   4.88425321697432E-09   2.09036742665322E-17   3.00000000000000E-02
      3.00000000000000E-02   0.00000000000000E+00   0.00000000000000E+00   0.00000000000000E+00   0.00000000000000E+00
      0.00000000000000E+00  -1.30685133654406E-16
      5.25000000000000E-01
      0.00000000000000E+00   0.00000000000000E+00   0.00000000000000E+00   0.00000000000000E+00  -8.30844528501308E-14
     -4.93627060106826E-09  -4.93635368552111E-09  -7.69611930149764E-18   2.10000000000000E-01   2.10000000000000E-01
      0.00000000000000E+00   0.00000000000000E+00   0.00000000000000E+00   0.00000000000000E+00   0.00000000000000E+00
      1.19111832481899E-16   3.40000000000000E-01   3.40000000000000E-01   0.00000000000000E+00   0.00000000000000E+00
      4.93642453765219E-09  -7.08521310791845E-14   4.93635368552111E-09   2.08390233644096E-17   3.00000000000000E-02
      3.00000000000000E-02   0.00000000000000E+00   0.00000000000000E+00   0.00000000000000E+00   0.00000000000000E+00
      0.00000000000000E+00  -1.32254736544811E-16
      5.40000000000000E-01
      0.00000000000000E+00   0.00000000000000E+00   0.00000000000000E+00   0.00000000000000E+00  -8.41859453805504E-14
     -4.99111511136743E-09  -4.99119929731281E-09  -7.77051710360667E-18   2.16000000000000E-01   2.16000000000000E-01
      0.00000000000000E+00   0.00000000000000E+00   0.00000000000000E+00   0.00000000000000E+00   0.00000000000000E+00
      1.20820626899711E-16   3.40000000000000E-01   3.40000000000000E-01   0.00000000000000E+00   0.00000000000000E+00
      4.99126317446251E-09  -6.38771496987802E-14   4.99119929731281E-09   2.07744390951169E-17   3.00000000000000E-02
      3.00000000000000E-02   0.00000000000000E+00   0.00000000000000E+00   0.00000000000000E+00   0.00000000000000E+00
      0.00000000000000E+00  -1.33824548891221E-16
      5.55000000000000E-01
      0.00000000000000E+00   0.00000000000000E+00   0.00000000000000E+00   0.00000000000000E+00  -8.52857157609966E-14