DF-ISE text

Info {
  version   = 1.0
  type      = xyplot
  datasets  = [
    "time"
    "source OuterVoltage" "source InnerVoltage" "source QuasiFermiPotential" "source DisplacementCurrent" "source eCurrent"
    "source hCurrent" "source TotalCurrent" "source Charge" "topGate OuterVoltage" "topGate InnerVoltage"
    "topGate QuasiFermiPotential" "topGate DisplacementCurrent" "topGate eCurrent" "topGate hCurrent" "topGate TotalCurrent"
    "topGate Charge" "drain OuterVoltage" "drain InnerVoltage" "drain QuasiFermiPotential" "drain DisplacementCurrent"
    "drain eCurrent" "drain hCurrent" "drain TotalCurrent" "drain Charge" "bottomGate OuterVoltage"
    "bottomGate InnerVoltage" "bottomGate QuasiFermiPotential" "bottomGate DisplacementCurrent" "bottomGate eCurrent" "bottomGate hCurrent"
    "bottomGate TotalCurrent" "bottomGate Charge" ]
  functions = [
    Time
    OuterVoltage InnerVoltage QuasiFermiPotential DisplacementCurrent eCurrent
    hCurrent TotalCurrent Charge OuterVoltage InnerVoltage
    QuasiFermiPotential DisplacementCurrent eCurrent hCurrent TotalCurrent
    Charge OuterVoltage InnerVoltage QuasiFermiPotential DisplacementCurrent
    eCurrent hCurrent TotalCurrent Charge OuterVoltage
    InnerVoltage QuasiFermiPotential DisplacementCurrent eCurrent hCurrent
    TotalCurrent Charge ]
}

Data {
      1.50000000000000E-02
      0.00000000000000E+00   0.00000000000000E+00   0.00000000000000E+00   0.00000000000000E+00  -4.15011168093576E-14
     -3.83492924595186E-10  -3.83534425711996E-10  -4.53831114689564E-18   6.00000000000000E-03   6.00000000000000E-03
      0.00000000000000E+00   0.00000000000000E+00   0.00000000000000E+00   0.00000000000000E+00   0.00000000000000E+00
      6.83767973129163E-17   1.10000000000000E-01   1.10000000000000E-01   0.00000000000000E+00   0.00000000000000E+00
      3.83527566763483E-10   6.85894851258504E-15   3.83534425711996E-10   1.86304935086063E-17   1.00000000000000E-02
      1.00000000000000E-02   0.00000000000000E+00   0.00000000000000E+00   0.00000000000000E+00   0.00000000000000E+00
      0.00000000000000E+00  -8.24689796746270E-17
      3.00000000000000E-02
      0.00000000000000E+00   0.00000000000000E+00   0.00000000000000E+00   0.00000000000000E+00  -4.25363331854902E-14
     -3.87899074962214E-10  -3.87941611295400E-10  -4.63672575337881E-18   1.20000000000000E-02   1.20000000000000E-02
      0.00000000000000E+00   0.00000000000000E+00   0.00000000000000E+00   0.00000000000000E+00   0.00000000000000E+00
      7.01112612092454E-17   1.10000000000000E-01   1.10000000000000E-01   0.00000000000000E+00   0.00000000000000E+00
      3.87934650056563E-10   6.96123883693087E-15   3.87941611295400E-10   1.85366045595368E-17   1.00000000000000E-02
      1.00000000000000E-02   0.00000000000000E+00   0.00000000000000E+00   0.00000000000000E+00   0.00000000000000E+00
      0.00000000000000E+00  -8.40111400154033E-17
      4.50000000000000E-02
      0.00000000000000E+00   0.00000000000000E+00   0.00000000000000E+00   0.00000000000000E+00  -4.35715608404122E-14
     -3.92664458545719E-10  -3.92708030106559E-10  -4.73413901032072E-18   1.80000000000000E-02   1.80000000000000E-02
      0.00000000000000E+00   0.00000000000000E+00   0.00000000000000E+00   0.00000000000000E+00   0.00000000000000E+00
      7.18438804153995E-17   1.10000000000000E-01   1.10000000000000E-01   0.00000000000000E+00   0.00000000000000E+00
      3.92700981839760E-10   7.04826680013187E-15   3.92708030106560E-10   1.84455542704017E-17   1.00000000000000E-02
      1.00000000000000E-02   0.00000000000000E+00   0.00000000000000E+00   0.00000000000000E+00   0.00000000000000E+00
      0.00000000000000E+00  -8.55552956754804E-17
      6.00000000000000E-02
      0.00000000000000E+00   0.00000000000000E+00   0.00000000000000E+00   0.00000000000000E+00  -4.46072762309909E-14
     -3.97787079414420E-10  -3.97831686690651E-10  -4.83057016047108E-18   2.40000000000000E-02   2.40000000000000E-02
      0.00000000000000E+00   0.00000000000000E+00   0.00000000000000E+00   0.00000000000000E+00   0.00000000000000E+00
      7.35747948071615E-17   1.10000000000000E-01   1.10000000000000E-01   0.00000000000000E+00   0.00000000000000E+00
      3.97824565354122E-10   7.12133652925476E-15   3.97831686690651E-10   1.83570725026382E-17   1.00000000000000E-02
      1.00000000000000E-02   0.00000000000000E+00   0.00000000000000E+00   0.00000000000000E+00   0.00000000000000E+00
      0.00000000000000E+00  -8.71012971493286E-17
      7.50000000000000E-02
      0.00000000000000E+00   0.00000000000000E+00   0.00000000000000E+00   0.00000000000000E+00  -4.56439048798295E-14
     -4.03265630212701E-10  -4.03311274117581E-10  -4.92603915103634E-18   3.00000000000000E-02   3.00000000000000E-02
      0.00000000000000E+00   0.00000000000000E+00   0.00000000000000E+00   0.00000000000000E+00   0.00000000000000E+00
      7.53041321818009E-17   1.10000000000000E-01   1.10000000000000E-01   0.00000000000000E+00   0.00000000000000E+00
      4.03304093090098E-10   7.18102748257914E-15   4.03311274117581E-10   1.82709143859891E-17   1.00000000000000E-02
      1.00000000000000E-02   0.00000000000000E+00   0.00000000000000E+00   0.00000000000000E+00   0.00000000000000E+00
      0.00000000000000E+00  -8.86490074167536E-17
      9.00000000000000E-02
      0.00000000000000E+00   0.00000000000000E+00   0.00000000000000E+00   0.00000000000000E+00  -4.66818062668299E-14
     -4.09099481450233E-10  -4.09146163256499E-10  -5.02056649671836E-18   3.60000000000000E-02   3.60000000000000E-02
      0.00000000000000E+00   0.00000000000000E+00   0.00000000000000E+00   0.00000000000000E+00   0.00000000000000E+00
      7.70320093321584E-17   1.10000000000000E-01   1.10000000000000E-01   0.00000000000000E+00   0.00000000000000E+00
      4.09138933457217E-10   7.22979928215059E-15   4.09146163256499E-10   1.81868580516805E-17   1.00000000000000E-02
      1.00000000000000E-02   0.00000000000000E+00   0.00000000000000E+00   0.00000000000000E+00   0.00000000000000E+00
      0.00000000000000E+00  -9.01983008871206E-17
      1.05000000000000E-01
      0.00000000000000E+00   0.00000000000000E+00   0.00000000000000E+00   0.00000000000000E+00  -4.77212594708261E-14
     -4.15288667137847E-10  -4.15336388397318E-10  -5.11417315507108E-18   4.20000000000000E-02   4.20000000000000E-02
      0.00000000000000E+00   0.00000000000000E+00   0.00000000000000E+00   0.00000000000000E+00   0.00000000000000E+00
      7.87585330315384E-17   1.10000000000000E-01   1.10000000000000E-01   0.00000000000000E+00   0.00000000000000E+00
      4.15329120332207E-10   7.26806511085170E-15   4.15336388397317E-10   1.81047025480887E-17   1.00000000000000E-02
      1.00000000000000E-02   0.00000000000000E+00   0.00000000000000E+00   0.00000000000000E+00   0.00000000000000E+00
      0.00000000000000E+00  -9.17490624245559E-17
      1.20000000000000E-01
      0.00000000000000E+00   0.00000000000000E+00   0.00000000000000E+00   0.00000000000000E+00  -4.87624498927430E-14
     -4.21833880567279E-10  -4.21882643017172E-10  -5.20688041354295E-18   4.80000000000000E-02   4.80000000000000E-02
      0.00000000000000E+00   0.00000000000000E+00   0.00000000000000E+00   0.00000000000000E+00   0.00000000000000E+00
      8.04838009350530E-17   1.10000000000000E-01   1.10000000000000E-01   0.00000000000000E+00   0.00000000000000E+00
      4.21875345714219E-10   7.29730295292106E-15   4.21882643017172E-10   1.80242659284713E-17   1.00000000000000E-02
      1.00000000000000E-02   0.00000000000000E+00   0.00000000000000E+00   0.00000000000000E+00   0.00000000000000E+00
      0.00000000000000E+00  -9.33011864499815E-17
      1.35000000000000E-01
      0.00000000000000E+00   0.00000000000000E+00   0.00000000000000E+00   0.00000000000000E+00  -4.98054574262489E-14
     -4.28736468495859E-10  -4.28786273953286E-10  -5.29870978753393E-18   5.40000000000000E-02   5.40000000000000E-02
      0.00000000000000E+00   0.00000000000000E+00   0.00000000000000E+00   0.00000000000000E+00   0.00000000000000E+00
      8.22079024031052E-17   1.10000000000000E-01   1.10000000000000E-01   0.00000000000000E+00   0.00000000000000E+00
      4.28778955771046E-10   7.31818223967521E-15   4.28786273953286E-10   1.79453835000098E-17   1.00000000000000E-02
      1.00000000000000E-02   0.00000000000000E+00   0.00000000000000E+00   0.00000000000000E+00   0.00000000000000E+00
      0.00000000000000E+00  -9.48545761155811E-17
      1.50000000000000E-01
      0.00000000000000E+00   0.00000000000000E+00   0.00000000000000E+00   0.00000000000000E+00  -5.08502464554018E-14
     -4.35998432481342E-10  -4.36049282727797E-10  -5.38968292877772E-18   6.00000000000000E-02   6.00000000000000E-02
      0.00000000000000E+00   0.00000000000000E+00   0.00000000000000E+00   0.00000000000000E+00   0.00000000000000E+00
      8.39309192526229E-17   1.10000000000000E-01   1.10000000000000E-01   0.00000000000000E+00   0.00000000000000E+00
      4.36041950625704E-10   7.33210209270459E-15   4.36049282727797E-10   1.78679062233370E-17   1.00000000000000E-02
      1.00000000000000E-02   0.00000000000000E+00   0.00000000000000E+00   0.00000000000000E+00   0.00000000000000E+00
      0.00000000000000E+00  -9.64091425471821E-17
      1.65000000000000E-01
      0.00000000000000E+00   0.00000000000000E+00   0.00000000000000E+00   0.00000000000000E+00  -5.18966580491744E-14
     -4.43622430820075E-10  -4.43674327478125E-10  -5.47982154335322E-18   6.60000000000000E-02   6.60000000000000E-02
      0.00000000000000E+00   0.00000000000000E+00   0.00000000000000E+00   0.00000000000000E+00   0.00000000000000E+00
      8.56529264415091E-17   1.10000000000000E-01   1.10000000000000E-01   0.00000000000000E+00   0.00000000000000E+00
      4.43666988310549E-10   7.33916757528274E-15   4.43674327478125E-10   1.77916992518631E-17   1.00000000000000E-02
      1.00000000000000E-02   0.00000000000000E+00   0.00000000000000E+00   0.00000000000000E+00   0.00000000000000E+00
      0.00000000000000E+00  -9.79648041500189E-17
      1.80000000000000E-01
      0.00000000000000E+00   0.00000000000000E+00   0.00000000000000E+00   0.00000000000000E+00  -5.29444046906692E-14
     -4.51611789371891E-10  -4.51664733776581E-10  -5.56914731863654E-18   7.20000000000000E-02   7.20000000000000E-02
      0.00000000000000E+00   0.00000000000000E+00   0.00000000000000E+00   0.00000000000000E+00   0.00000000000000E+00
      8.73739926915553E-17   1.10000000000000E-01   1.10000000000000E-01   0.00000000000000E+00   0.00000000000000E+00
      4.51657393406994E-10   7.34036958733322E-15   4.51664733776581E-10   1.77166406004966E-17   1.00000000000000E-02
      1.00000000000000E-02   0.00000000000000E+00   0.00000000000000E+00   0.00000000000000E+00   0.00000000000000E+00
      0.00000000000000E+00  -9.95214859734154E-17
      1.95000000000000E-01
      0.00000000000000E+00   0.00000000000000E+00   0.00000000000000E+00   0.00000000000000E+00  -5.39930678261332E-14
     -4.59970514436951E-10  -4.60024507504777E-10  -5.65768185851918E-18   7.80000000000000E-02   7.80000000000000E-02
      0.00000000000000E+00   0.00000000000000E+00   0.00000000000000E+00   0.00000000000000E+00   0.00000000000000E+00
      8.90941810548147E-17   1.10000000000000E-01   1.10000000000000E-01   0.00000000000000E+00   0.00000000000000E+00
      4.60017170995163E-10   7.33650961468823E-15   4.60024507504777E-10   1.76426199337527E-17   1.00000000000000E-02
      1.00000000000000E-02   0.00000000000000E+00   0.00000000000000E+00   0.00000000000000E+00   0.00000000000000E+00
      0.00000000000000E+00  -1.01079119130048E-16
      2.10000000000000E-01
      0.00000000000000E+00   0.00000000000000E+00   0.00000000000000E+00   0.00000000000000E+00  -5.50420984495659E-14
     -4.68703312441559E-10  -4.68758354540009E-10  -5.74544662624020E-18   8.40000000000000E-02   8.40000000000000E-02
      0.00000000000000E+00   0.00000000000000E+00   0.00000000000000E+00   0.00000000000000E+00   0.00000000000000E+00
      9.08135494281554E-17   1.10000000000000E-01   1.10000000000000E-01   0.00000000000000E+00   0.00000000000000E+00
      4.68751026660639E-10   7.32787936930026E-15   4.68758354540009E-10   1.75695374637094E-17   1.00000000000000E-02
      1.00000000000000E-02   0.00000000000000E+00   0.00000000000000E+00   0.00000000000000E+00   0.00000000000000E+00
      0.00000000000000E+00  -1.02637640265625E-16
      2.25000000000000E-01
      0.00000000000000E+00   0.00000000000000E+00   0.00000000000000E+00   0.00000000000000E+00  -5.60908208571672E-14
     -4.77815618014071E-10  -4.77871708834929E-10  -5.83246289420758E-18   9.00000000000000E-02   9.00000000000000E-02
      0.00000000000000E+00   0.00000000000000E+00   0.00000000000000E+00   0.00000000000000E+00   0.00000000000000E+00
      9.25321510204162E-17   1.10000000000000E-01   1.10000000000000E-01   0.00000000000000E+00   0.00000000000000E+00
      4.77864393447046E-10   7.31538788291830E-15   4.77871708834929E-10   1.74973029487934E-17   1.00000000000000E-02
      1.00000000000000E-02   0.00000000000000E+00   0.00000000000000E+00   0.00000000000000E+00   0.00000000000000E+00
      0.00000000000000E+00  -1.04196991075002E-16
      2.40000000000000E-01
      0.00000000000000E+00   0.00000000000000E+00   0.00000000000000E+00   0.00000000000000E+00  -5.71384396171647E-14
     -4.87313627480260E-10  -4.87370765919877E-10  -5.91875170021320E-18   9.60000000000000E-02   9.60000000000000E-02
      0.00000000000000E+00   0.00000000000000E+00   0.00000000000000E+00   0.00000000000000E+00   0.00000000000000E+00
      9.42500347762958E-17   1.10000000000000E-01   1.10000000000000E-01   0.00000000000000E+00   0.00000000000000E+00
      4.87363466805075E-10   7.29911480258138E-15   4.87370765919877E-10   1.74258347849187E-17   1.00000000000000E-02
      1.00000000000000E-02   0.00000000000000E+00   0.00000000000000E+00   0.00000000000000E+00   0.00000000000000E+00
      0.00000000000000E+00  -1.05757117861001E-16
      2.55000000000000E-01
      0.00000000000000E+00   0.00000000000000E+00   0.00000000000000E+00   0.00000000000000E+00  -5.81840497098610E-14
     -4.97204344245119E-10  -4.97262528294829E-10  -6.00433380948005E-18   1.02000000000000E-01   1.02000000000000E-01
      0.00000000000000E+00   0.00000000000000E+00   0.00000000000000E+00   0.00000000000000E+00   0.00000000000000E+00
      9.59672457608051E-17   1.10000000000000E-01   1.10000000000000E-01   0.00000000000000E+00   0.00000000000000E+00
      4.97255248772473E-10   7.27952235494115E-15   4.97262528294828E-10   1.73550591810588E-17   1.00000000000000E-02
      1.00000000000000E-02   0.00000000000000E+00   0.00000000000000E+00   0.00000000000000E+00   0.00000000000000E+00
      0.00000000000000E+00  -1.07317971132384E-16
      2.70000000000000E-01
      0.00000000000000E+00   0.00000000000000E+00   0.00000000000000E+00   0.00000000000000E+00  -5.92266497043376E-14
     -5.07495633288401E-10  -5.07554859938105E-10  -6.08922968201281E-18   1.08000000000000E-01   1.08000000000000E-01
      0.00000000000000E+00   0.00000000000000E+00   0.00000000000000E+00   0.00000000000000E+00   0.00000000000000E+00
      9.76838255078281E-17   1.10000000000000E-01   1.10000000000000E-01   0.00000000000000E+00   0.00000000000000E+00
      5.07547602827124E-10   7.25711098157775E-15   5.07554859938105E-10   1.72849094118843E-17   1.00000000000000E-02
      1.00000000000000E-02   0.00000000000000E+00   0.00000000000000E+00   0.00000000000000E+00   0.00000000000000E+00
      0.00000000000000E+00  -1.08879505237700E-16
      2.85000000000000E-01
      0.00000000000000E+00   0.00000000000000E+00   0.00000000000000E+00   0.00000000000000E+00  -6.02651577562532E-14
     -5.18196288184812E-10  -5.18256553342568E-10  -6.17345944475790E-18   1.14000000000000E-01   1.14000000000000E-01
      0.00000000000000E+00   0.00000000000000E+00   0.00000000000000E+00   0.00000000000000E+00   0.00000000000000E+00
      9.93998123360544E-17   1.10000000000000E-01   1.10000000000000E-01   0.00000000000000E+00   0.00000000000000E+00
      5.18249321087630E-10   7.23225493886489E-15   5.18256553342569E-10   1.72153251406423E-17   1.00000000000000E-02
      1.00000000000000E-02   0.00000000000000E+00   0.00000000000000E+00   0.00000000000000E+00   0.00000000000000E+00
      0.00000000000000E+00  -1.10441678031939E-16
      3.00000000000000E-01
      0.00000000000000E+00   0.00000000000000E+00   0.00000000000000E+00   0.00000000000000E+00  -6.12984301385666E-14
     -5.29316112306130E-10  -5.29377410736268E-10  -6.25704286811358E-18   1.20000000000000E-01   1.20000000000000E-01
      0.00000000000000E+00   0.00000000000000E+00   0.00000000000000E+00   0.00000000000000E+00   0.00000000000000E+00
      1.01115241635284E-16   1.10000000000000E-01   1.10000000000000E-01   0.00000000000000E+00   0.00000000000000E+00
      5.29370205794202E-10   7.20494206665520E-15   5.29377410736269E-10   1.71462518059736E-17   1.00000000000000E-02
      1.00000000000000E-02   0.00000000000000E+00   0.00000000000000E+00   0.00000000000000E+00   0.00000000000000E+00
      0.00000000000000E+00  -1.12004450573144E-16
      3.15000000000000E-01
      0.00000000000000E+00   0.00000000000000E+00   0.00000000000000E+00   0.00000000000000E+00  -6.23252819555489E-14
     -5.40866017754494E-10  -5.40928343036450E-10  -6.33999934636380E-18   1.26000000000000E-01   1.26000000000000E-01
      0.00000000000000E+00   0.00000000000000E+00   0.00000000000000E+00   0.00000000000000E+00   0.00000000000000E+00
      1.02830146125850E-16   1.10000000000000E-01   1.10000000000000E-01   0.00000000000000E+00   0.00000000000000E+00
      5.40921167287200E-10   7.17574924925194E-15   5.40928343036449E-10   1.70776400668686E-17   1.00000000000000E-02
      1.00000000000000E-02   0.00000000000000E+00   0.00000000000000E+00   0.00000000000000E+00   0.00000000000000E+00
      0.00000000000000E+00  -1.13567786846354E-16
      3.30000000000000E-01
      0.00000000000000E+00   0.00000000000000E+00   0.00000000000000E+00   0.00000000000000E+00  -6.33445096417015E-14
     -5.52858141184227E-10  -5.52921485693869E-10  -6.42234788164179E-18   1.32000000000000E-01   1.32000000000000E-01
      0.00000000000000E+00   0.00000000000000E+00   0.00000000000000E+00   0.00000000000000E+00   0.00000000000000E+00
      1.04544556093676E-16   1.10000000000000E-01   1.10000000000000E-01   0.00000000000000E+00   0.00000000000000E+00
      5.52914341011966E-10   7.14468190212165E-15   5.52921485693868E-10   1.70094453004327E-17   1.00000000000000E-02
      1.00000000000000E-02   0.00000000000000E+00   0.00000000000000E+00   0.00000000000000E+00   0.00000000000000E+00
      0.00000000000000E+00  -1.15131653512467E-16
      3.45000000000000E-01
      0.00000000000000E+00   0.00000000000000E+00   0.00000000000000E+00   0.00000000000000E+00  -6.43549148112629E-14
     -5.65305983603487E-10  -5.65370338518298E-10  -6.50410707106152E-18   1.38000000000000E-01   1.38000000000000E-01
      0.00000000000000E+00   0.00000000000000E+00   0.00000000000000E+00   0.00000000000000E+00   0.00000000000000E+00
      1.06258499603256E-16   1.10000000000000E-01   1.10000000000000E-01   0.00000000000000E+00   0.00000000000000E+00
      5.65363226415823E-10   7.11210247410878E-15   5.65370338518297E-10   1.69416271475827E-17   1.00000000000000E-02
      1.00000000000000E-02   0.00000000000000E+00   0.00000000000000E+00   0.00000000000000E+00   0.00000000000000E+00
      0.00000000000000E+00  -1.16696019679778E-16
      3.60000000000000E-01
      0.00000000000000E+00   0.00000000000000E+00   0.00000000000000E+00   0.00000000000000E+00  -6.53553290005652E-14
     -5.78224573845752E-10  -5.78289929174753E-10  -6.58529509668382E-18   1.44000000000000E-01   1.44000000000000E-01
      0.00000000000000E+00   0.00000000000000E+00   0.00000000000000E+00   0.00000000000000E+00   0.00000000000000E+00
      1.07972002690647E-16   1.10000000000000E-01   1.10000000000000E-01   0.00000000000000E+00   0.00000000000000E+00
      5.78282850965616E-10   7.07820913754555E-15   5.78289929174754E-10   1.68741491022116E-17   1.00000000000000E-02
      1.00000000000000E-02   0.00000000000000E+00   0.00000000000000E+00   0.00000000000000E+00   0.00000000000000E+00
      0.00000000000000E+00  -1.18260856696175E-16
      3.75000000000000E-01
      0.00000000000000E+00   0.00000000000000E+00   0.00000000000000E+00   0.00000000000000E+00  -6.63446388339804E-14
     -5.91630661272803E-10  -5.91697005911637E-10  -6.66592971801269E-18   1.50000000000000E-01   1.50000000000000E-01
      0.00000000000000E+00   0.00000000000000E+00   0.00000000000000E+00   0.00000000000000E+00   0.00000000000000E+00
      1.09685089538369E-16   1.10000000000000E-01   1.10000000000000E-01   0.00000000000000E+00   0.00000000000000E+00
      5.91689962900165E-10   7.04301147123233E-15   5.91697005911636E-10   1.68069781397465E-17   1.00000000000000E-02
      1.00000000000000E-02   0.00000000000000E+00   0.00000000000000E+00   0.00000000000000E+00   0.00000000000000E+00
      0.00000000000000E+00  -1.19826137960103E-16
      3.90000000000000E-01
      0.00000000000000E+00   0.00000000000000E+00   0.00000000000000E+00   0.00000000000000E+00  -6.73218111434628E-14
     -6.05542941649826E-10  -6.05610263460969E-10  -6.74602826674397E-18   1.56000000000000E-01   1.56000000000000E-01
      0.00000000000000E+00   0.00000000000000E+00   0.00000000000000E+00   0.00000000000000E+00   0.00000000000000E+00
      1.11397782633952E-16   1.10000000000000E-01   1.10000000000000E-01   0.00000000000000E+00   0.00000000000000E+00
      6.05603256739483E-10   7.00672148629566E-15   6.05610263460969E-10   1.67400843813916E-17   1.00000000000000E-02
      1.00000000000000E-02   0.00000000000000E+00   0.00000000000000E+00   0.00000000000000E+00   0.00000000000000E+00
      0.00000000000000E+00  -1.21391838748600E-16
      4.05000000000000E-01
      0.00000000000000E+00   0.00000000000000E+00   0.00000000000000E+00   0.00000000000000E+00  -6.82859175802573E-14
     -6.19982319634705E-10  -6.20050605552286E-10  -6.82560764351238E-18   1.62000000000000E-01   1.62000000000000E-01
      0.00000000000000E+00   0.00000000000000E+00   0.00000000000000E+00   0.00000000000000E+00   0.00000000000000E+00
      1.13110102913673E-16   1.10000000000000E-01   1.10000000000000E-01   0.00000000000000E+00   0.00000000000000E+00
      6.20043635998589E-10   6.96955369758217E-15   6.20050605552286E-10   1.66734407906721E-17   1.00000000000000E-02
      1.00000000000000E-02   0.00000000000000E+00   0.00000000000000E+00   0.00000000000000E+00   0.00000000000000E+00
      0.00000000000000E+00  -1.22957936060833E-16
      4.20000000000000E-01
      0.00000000000000E+00   0.00000000000000E+00   0.00000000000000E+00   0.00000000000000E+00  -6.92361582744296E-14
     -6.34972213303931E-10  -6.35041449462205E-10  -6.90468431640692E-18   1.68000000000000E-01   1.68000000000000E-01
      0.00000000000000E+00   0.00000000000000E+00   0.00000000000000E+00   0.00000000000000E+00   0.00000000000000E+00
      1.14822069892921E-16   1.10000000000000E-01   1.10000000000000E-01   0.00000000000000E+00   0.00000000000000E+00
      6.35034517995227E-10   6.93146697891364E-15   6.35041449462206E-10   1.66070228992101E-17   1.00000000000000E-02
      1.00000000000000E-02   0.00000000000000E+00   0.00000000000000E+00   0.00000000000000E+00   0.00000000000000E+00
      0.00000000000000E+00  -1.24524408475724E-16
      4.35000000000000E-01
      0.00000000000000E+00   0.00000000000000E+00   0.00000000000000E+00   0.00000000000000E+00  -7.01718841219553E-14
     -6.50538906873017E-10  -6.50609078757139E-10  -6.98327432104584E-18   1.74000000000000E-01   1.74000000000000E-01
      0.00000000000000E+00   0.00000000000000E+00   0.00000000000000E+00   0.00000000000000E+00   0.00000000000000E+00
      1.16533701784468E-16   1.10000000000000E-01   1.10000000000000E-01   0.00000000000000E+00   0.00000000000000E+00
      6.50602186093479E-10   6.89266366091367E-15   6.50609078757139E-10   1.65408085589424E-17   1.00000000000000E-02
      1.00000000000000E-02   0.00000000000000E+00   0.00000000000000E+00   0.00000000000000E+00   0.00000000000000E+00
      0.00000000000000E+00  -1.26091236022365E-16
      4.50000000000000E-01
      0.00000000000000E+00   0.00000000000000E+00   0.00000000000000E+00   0.00000000000000E+00  -7.10926173088553E-14
     -6.66711955745759E-10  -6.66783048363068E-10  -7.06139326202112E-18   1.80000000000000E-01   1.80000000000000E-01
      0.00000000000000E+00   0.00000000000000E+00   0.00000000000000E+00   0.00000000000000E+00   0.00000000000000E+00
      1.18245015605804E-16   1.10000000000000E-01   1.10000000000000E-01   0.00000000000000E+00   0.00000000000000E+00
      6.66776195185046E-10   6.85317802192407E-15   6.66783048363068E-10   1.64747777182458E-17   1.00000000000000E-02
      1.00000000000000E-02   0.00000000000000E+00   0.00000000000000E+00   0.00000000000000E+00   0.00000000000000E+00
      0.00000000000000E+00  -1.27658400062029E-16
      4.65000000000000E-01
      0.00000000000000E+00   0.00000000000000E+00   0.00000000000000E+00   0.00000000000000E+00  -7.19980697173089E-14
     -6.83524651727902E-10  -6.83596649797619E-10  -7.13905631554235E-18   1.86000000000000E-01   1.86000000000000E-01
      0.00000000000000E+00   0.00000000000000E+00   0.00000000000000E+00   0.00000000000000E+00   0.00000000000000E+00
      1.19956027276601E-16   1.10000000000000E-01   1.10000000000000E-01   0.00000000000000E+00   0.00000000000000E+00
      6.83589836672062E-10   6.81312555748725E-15   6.83596649797619E-10   1.64089122196767E-17   1.00000000000000E-02
      1.00000000000000E-02   0.00000000000000E+00   0.00000000000000E+00   0.00000000000000E+00   0.00000000000000E+00
      0.00000000000000E+00  -1.29225883180736E-16
      4.80000000000000E-01
      0.00000000000000E+00   0.00000000000000E+00   0.00000000000000E+00   0.00000000000000E+00  -7.28881588977066E-14
     -7.01014554055451E-10  -7.01087442214349E-10  -7.21627823312487E-18   1.92000000000000E-01   1.92000000000000E-01
      0.00000000000000E+00   0.00000000000000E+00   0.00000000000000E+00   0.00000000000000E+00   0.00000000000000E+00
      1.21666751707243E-16   1.10000000000000E-01   1.10000000000000E-01   0.00000000000000E+00   0.00000000000000E+00
      7.01080669674238E-10   6.77254011026703E-15   7.01087442214348E-10   1.63431956172434E-17   1.00000000000000E-02
      1.00000000000000E-02   0.00000000000000E+00   0.00000000000000E+00   0.00000000000000E+00   0.00000000000000E+00
      0.00000000000000E+00  -1.30793669091362E-16
      4.95000000000000E-01
      0.00000000000000E+00   0.00000000000000E+00   0.00000000000000E+00   0.00000000000000E+00  -7.37630213338264E-14
     -7.19224094131156E-10  -7.19297857152490E-10  -7.29307334618357E-18   1.98000000000000E-01   1.98000000000000E-01
      0.00000000000000E+00   0.00000000000000E+00   0.00000000000000E+00   0.00000000000000E+00   0.00000000000000E+00
      1.23377202879291E-16   1.10000000000000E-01   1.10000000000000E-01   0.00000000000000E+00   0.00000000000000E+00
      7.19291125633941E-10   6.73151854822131E-15   7.19297857152489E-10   1.62776130113281E-17   1.00000000000000E-02
      1.00000000000000E-02   0.00000000000000E+00   0.00000000000000E+00   0.00000000000000E+00   0.00000000000000E+00
      0.00000000000000E+00  -1.32361742544436E-16
      5.10000000000000E-01
      0.00000000000000E+00   0.00000000000000E+00   0.00000000000000E+00   0.00000000000000E+00  -7.46230227739499E-14
     -7.38201260960831E-10  -7.38275883983605E-10  -7.36945557140697E-18   2.04000000000000E-01   2.04000000000000E-01
      0.00000000000000E+00   0.00000000000000E+00   0.00000000000000E+00   0.00000000000000E+00   0.00000000000000E+00
      1.25087393918655E-16   1.10000000000000E-01   1.10000000000000E-01   0.00000000000000E+00   0.00000000000000E+00
      7.38269193929525E-10   6.69005408046948E-15   7.38275883983605E-10   1.62121508995539E-17   1.00000000000000E-02
      1.00000000000000E-02   0.00000000000000E+00   0.00000000000000E+00   0.00000000000000E+00   0.00000000000000E+00
      0.00000000000000E+00  -1.33930089246802E-16
      5.25000000000000E-01
      0.00000000000000E+00   0.00000000000000E+00   0.00000000000000E+00   0.00000000000000E+00  -7.54687654498341E-14
     -7.58000376017076E-10  -7.58075844782525E-10  -7.44543841679958E-18   2.10000000000000E-01   2.10000000000000E-01
      0.00000000000000E+00   0.00000000000000E+00   0.00000000000000E+00   0.00000000000000E+00   0.00000000000000E+00
      1.26797337162177E-16   1.10000000000000E-01   1.10000000000000E-01   0.00000000000000E+00   0.00000000000000E+00
      7.58069196524363E-10   6.64825816178956E-15   7.58075844782525E-10   1.61467970420539E-17   1.00000000000000E-02
      1.00000000000000E-02   0.00000000000000E+00   0.00000000000000E+00   0.00000000000000E+00   0.00000000000000E+00
      0.00000000000000E+00  -1.35498695787432E-16
      5.40000000000000E-01
      0.00000000000000E+00   0.00000000000000E+00   0.00000000000000E+00   0.00000000000000E+00  -7.63010920552518E-14
     -7.78682965079485E-10  -7.78759266171541E-10  -7.52103498829134E-18   2.16000000000000E-01   2.16000000000000E-01
      0.00000000000000E+00   0.00000000000000E+00   0.00000000000000E+00   0.00000000000000E+00   0.00000000000000E+00
      1.28507044218253E-16   1.10000000000000E-01   1.10000000000000E-01   0.00000000000000E+00   0.00000000000000E+00
      7.78752660070815E-10   6.60610072521879E-15   7.78759266171540E-10   1.60815403397488E-17   1.00000000000000E-02
      1.00000000000000E-02   0.00000000000000E+00   0.00000000000000E+00   0.00000000000000E+00   0.00000000000000E+00
      0.00000000000000E+00  -1.37067549569711E-16
      5.55000000000000E-01
      0.00000000000000E+00   0.00000000000000E+00   0.00000000000000E+00   0.00000000000000E+00  -7.71210864081754E-14