DF-ISE text

Info {
  version   = 1.0
  type      = xyplot
  datasets  = [
    "time"
    "source OuterVoltage" "source InnerVoltage" "source QuasiFermiPotential" "source DisplacementCurrent" "source eCurrent"
    "source hCurrent" "source TotalCurrent" "source Charge" "topGate OuterVoltage" "topGate InnerVoltage"
    "topGate QuasiFermiPotential" "topGate DisplacementCurrent" "topGate eCurrent" "topGate hCurrent" "topGate TotalCurrent"
    "topGate Charge" "drain OuterVoltage" "drain InnerVoltage" "drain QuasiFermiPotential" "drain DisplacementCurrent"
    "drain eCurrent" "drain hCurrent" "drain TotalCurrent" "drain Charge" "bottomGate OuterVoltage"
    "bottomGate InnerVoltage" "bottomGate QuasiFermiPotential" "bottomGate DisplacementCurrent" "bottomGate eCurrent" "bottomGate hCurrent"
    "bottomGate TotalCurrent" "bottomGate Charge" ]
  functions = [
    Time
    OuterVoltage InnerVoltage QuasiFermiPotential DisplacementCurrent eCurrent
    hCurrent TotalCurrent Charge OuterVoltage InnerVoltage
    QuasiFermiPotential DisplacementCurrent eCurrent hCurrent TotalCurrent
    Charge OuterVoltage InnerVoltage QuasiFermiPotential DisplacementCurrent
    eCurrent hCurrent TotalCurrent Charge OuterVoltage
    InnerVoltage QuasiFermiPotential DisplacementCurrent eCurrent hCurrent
    TotalCurrent Charge ]
}

Data {
      1.50000000000000E-02
      0.00000000000000E+00   0.00000000000000E+00   0.00000000000000E+00   0.00000000000000E+00  -7.82280743501565E-14
     -3.03245651095142E-10  -3.03323879169493E-10  -7.26768935733347E-18   6.00000000000000E-03   6.00000000000000E-03
      0.00000000000000E+00   0.00000000000000E+00   0.00000000000000E+00   0.00000000000000E+00   0.00000000000000E+00
      1.72762194482711E-17   2.70000000000000E-01   2.70000000000000E-01   0.00000000000000E+00   0.00000000000000E+00
      3.03329256183291E-10  -5.37701379851891E-15   3.03323879169492E-10   1.97099160709639E-17   2.00000000000000E-01
      2.00000000000000E-01   0.00000000000000E+00   0.00000000000000E+00   0.00000000000000E+00   0.00000000000000E+00
      0.00000000000000E+00  -2.97184461619016E-17
      3.00000000000000E-02
      0.00000000000000E+00   0.00000000000000E+00   0.00000000000000E+00   0.00000000000000E+00  -7.95157688284750E-14
     -2.94542914156365E-10  -2.94622429925194E-10  -7.34420564823782E-18   1.20000000000000E-02   1.20000000000000E-02
      0.00000000000000E+00   0.00000000000000E+00   0.00000000000000E+00   0.00000000000000E+00   0.00000000000000E+00
      1.89861933929670E-17   2.70000000000000E-01   2.70000000000000E-01   0.00000000000000E+00   0.00000000000000E+00
      2.94626410378213E-10  -3.98045301920247E-15   2.94622429925194E-10   1.96451581385867E-17   2.00000000000000E-01
      2.00000000000000E-01   0.00000000000000E+00   0.00000000000000E+00   0.00000000000000E+00   0.00000000000000E+00
      0.00000000000000E+00  -3.12871458833159E-17
      4.50000000000000E-02
      0.00000000000000E+00   0.00000000000000E+00   0.00000000000000E+00   0.00000000000000E+00  -8.08150297349887E-14
     -2.86567249712284E-10  -2.86648064742019E-10  -7.42031783124637E-18   1.80000000000000E-02   1.80000000000000E-02
      0.00000000000000E+00   0.00000000000000E+00   0.00000000000000E+00   0.00000000000000E+00   0.00000000000000E+00
      2.06959253368350E-17   2.70000000000000E-01   2.70000000000000E-01   0.00000000000000E+00   0.00000000000000E+00
      2.86650781649336E-10  -2.71690731773415E-15   2.86648064742019E-10   1.95804796082930E-17   2.00000000000000E-01
      2.00000000000000E-01   0.00000000000000E+00   0.00000000000000E+00   0.00000000000000E+00   0.00000000000000E+00
      0.00000000000000E+00  -3.28560871138816E-17
      6.00000000000000E-02
      0.00000000000000E+00   0.00000000000000E+00   0.00000000000000E+00   0.00000000000000E+00  -8.21258892021851E-14
     -2.79278626491684E-10  -2.79360752380886E-10  -7.49603920125122E-18   2.40000000000000E-02   2.40000000000000E-02
      0.00000000000000E+00   0.00000000000000E+00   0.00000000000000E+00   0.00000000000000E+00   0.00000000000000E+00
      2.24054263337906E-17   2.70000000000000E-01   2.70000000000000E-01   0.00000000000000E+00   0.00000000000000E+00
      2.79362327423284E-10  -1.57504239833497E-15   2.79360752380886E-10   1.95158718590658E-17   2.00000000000000E-01
      2.00000000000000E-01   0.00000000000000E+00   0.00000000000000E+00   0.00000000000000E+00   0.00000000000000E+00
      0.00000000000000E+00  -3.44252589916051E-17
      7.50000000000000E-02
      0.00000000000000E+00   0.00000000000000E+00   0.00000000000000E+00   0.00000000000000E+00  -8.34483675912361E-14
     -2.72639695319498E-10  -2.72723143687089E-10  -7.57138264911807E-18   3.00000000000000E-02   3.00000000000000E-02
      0.00000000000000E+00   0.00000000000000E+00   0.00000000000000E+00   0.00000000000000E+00   0.00000000000000E+00
      2.41147067647241E-17   2.70000000000000E-01   2.70000000000000E-01   0.00000000000000E+00   0.00000000000000E+00
      2.72723688107817E-10  -5.44420728129488E-16   2.72723143687089E-10   1.94513271771817E-17   2.00000000000000E-01
      2.00000000000000E-01   0.00000000000000E+00   0.00000000000000E+00   0.00000000000000E+00   0.00000000000000E+00
      0.00000000000000E+00  -3.59946512927878E-17
      9.00000000000000E-02
      0.00000000000000E+00   0.00000000000000E+00   0.00000000000000E+00   0.00000000000000E+00  -8.47824741334052E-14
     -2.66615640359362E-10  -2.66700422833495E-10  -7.64636066963709E-18   3.60000000000000E-02   3.60000000000000E-02
      0.00000000000000E+00   0.00000000000000E+00   0.00000000000000E+00   0.00000000000000E+00   0.00000000000000E+00
      2.58237763928687E-17   2.70000000000000E-01   2.70000000000000E-01   0.00000000000000E+00   0.00000000000000E+00
      2.66700038225875E-10   3.84607620285994E-16   2.66700422833495E-10   1.93868386586383E-17   2.00000000000000E-01
      2.00000000000000E-01   0.00000000000000E+00   0.00000000000000E+00   0.00000000000000E+00   0.00000000000000E+00
      0.00000000000000E+00  -3.75642543818698E-17
      1.05000000000000E-01
      0.00000000000000E+00   0.00000000000000E+00   0.00000000000000E+00   0.00000000000000E+00  -8.61282075117682E-14
     -2.61174037042294E-10  -2.61260165249806E-10  -7.72098536978972E-18   4.20000000000000E-02   4.20000000000000E-02
      0.00000000000000E+00   0.00000000000000E+00   0.00000000000000E+00   0.00000000000000E+00   0.00000000000000E+00
      2.75326444136701E-17   2.70000000000000E-01   2.70000000000000E-01   0.00000000000000E+00   0.00000000000000E+00
      2.61258944338362E-10   1.22091144442242E-15   2.61260165249806E-10   1.93224001221721E-17   2.00000000000000E-01
      2.00000000000000E-01   0.00000000000000E+00   0.00000000000000E+00   0.00000000000000E+00   0.00000000000000E+00
      0.00000000000000E+00  -3.91340591660525E-17
      1.20000000000000E-01
      0.00000000000000E+00   0.00000000000000E+00   0.00000000000000E+00   0.00000000000000E+00  -8.74855563884881E-14
     -2.56284716812104E-10  -2.56372202368493E-10  -7.79526847726350E-18   4.80000000000000E-02   4.80000000000000E-02
      0.00000000000000E+00   0.00000000000000E+00   0.00000000000000E+00   0.00000000000000E+00   0.00000000000000E+00
      2.92413194997538E-17   2.70000000000000E-01   2.70000000000000E-01   0.00000000000000E+00   0.00000000000000E+00
      2.56370229686072E-10   1.97268242094234E-15   2.56372202368493E-10   1.92580060317082E-17   2.00000000000000E-01
      2.00000000000000E-01   0.00000000000000E+00   0.00000000000000E+00   0.00000000000000E+00   0.00000000000000E+00
      0.00000000000000E+00  -4.07040570541985E-17
      1.35000000000000E-01
      0.00000000000000E+00   0.00000000000000E+00   0.00000000000000E+00   0.00000000000000E+00  -8.88544998830623E-14
     -2.51919638404240E-10  -2.52008492904123E-10  -7.86922134915425E-18   5.40000000000000E-02   5.40000000000000E-02
      0.00000000000000E+00   0.00000000000000E+00   0.00000000000000E+00   0.00000000000000E+00   0.00000000000000E+00
      3.09498098415134E-17   2.70000000000000E-01   2.70000000000000E-01   0.00000000000000E+00   0.00000000000000E+00
      2.52005845471115E-10   2.64743300770761E-15   2.52008492904123E-10   1.91936514272091E-17   2.00000000000000E-01
      2.00000000000000E-01   0.00000000000000E+00   0.00000000000000E+00   0.00000000000000E+00   0.00000000000000E+00
      0.00000000000000E+00  -4.22742399195682E-17
      1.50000000000000E-01
      0.00000000000000E+00   0.00000000000000E+00   0.00000000000000E+00   0.00000000000000E+00  -9.02350080073754E-14
     -2.48052765763444E-10  -2.48143000771452E-10  -7.94285498080298E-18   6.00000000000000E-02   6.00000000000000E-02
      0.00000000000000E+00   0.00000000000000E+00   0.00000000000000E+00   0.00000000000000E+00   0.00000000000000E+00
      3.26581231837928E-17   2.70000000000000E-01   2.70000000000000E-01   0.00000000000000E+00   0.00000000000000E+00
      2.48139748689943E-10   3.25208150824241E-15   2.48143000771451E-10   1.91293318630031E-17   2.00000000000000E-01
      2.00000000000000E-01   0.00000000000000E+00   0.00000000000000E+00   0.00000000000000E+00   0.00000000000000E+00
      0.00000000000000E+00  -4.38446000659929E-17
      1.65000000000000E-01
      0.00000000000000E+00   0.00000000000000E+00   0.00000000000000E+00   0.00000000000000E+00  -9.16270420638505E-14
     -2.44659952356656E-10  -2.44751579398720E-10  -8.01618001472123E-18   6.60000000000000E-02   6.60000000000000E-02
      0.00000000000000E+00   0.00000000000000E+00   0.00000000000000E+00   0.00000000000000E+00   0.00000000000000E+00
      3.43662668590774E-17   2.70000000000000E-01   2.70000000000000E-01   0.00000000000000E+00   0.00000000000000E+00
      2.44747786423771E-10   3.79297494802505E-15   2.44751579398719E-10   1.90650433527764E-17   2.00000000000000E-01
      2.00000000000000E-01   0.00000000000000E+00   0.00000000000000E+00   0.00000000000000E+00   0.00000000000000E+00
      0.00000000000000E+00  -4.54151301971326E-17
      1.80000000000000E-01
      0.00000000000000E+00   0.00000000000000E+00   0.00000000000000E+00   0.00000000000000E+00  -9.30305550135355E-14
     -2.41718831876554E-10  -2.41811862431568E-10  -8.08920674956414E-18   7.20000000000000E-02   7.20000000000000E-02
      0.00000000000000E+00   0.00000000000000E+00   0.00000000000000E+00   0.00000000000000E+00   0.00000000000000E+00
      3.60742478175650E-17   2.70000000000000E-01   2.70000000000000E-01   0.00000000000000E+00   0.00000000000000E+00
      2.41807586487840E-10   4.27594372843386E-15   2.41811862431568E-10   1.90007823204989E-17   2.00000000000000E-01
      2.00000000000000E-01   0.00000000000000E+00   0.00000000000000E+00   0.00000000000000E+00   0.00000000000000E+00
      0.00000000000000E+00  -4.69858233884998E-17
      1.95000000000000E-01
      0.00000000000000E+00   0.00000000000000E+00   0.00000000000000E+00   0.00000000000000E+00  -9.44454918214413E-14
     -2.39208715173198E-10  -2.39303160665020E-10  -8.16194514911602E-18   7.80000000000000E-02   7.80000000000000E-02
      0.00000000000000E+00   0.00000000000000E+00   0.00000000000000E+00   0.00000000000000E+00   0.00000000000000E+00
      3.77820726544481E-17   2.70000000000000E-01   2.70000000000000E-01   0.00000000000000E+00   0.00000000000000E+00
      2.39298454338767E-10   4.70632625256558E-15   2.39303160665020E-10   1.89365455566374E-17   2.00000000000000E-01
      2.00000000000000E-01   0.00000000000000E+00   0.00000000000000E+00   0.00000000000000E+00   0.00000000000000E+00
      0.00000000000000E+00  -4.85566730619695E-17
      2.10000000000000E-01
      0.00000000000000E+00   0.00000000000000E+00   0.00000000000000E+00   0.00000000000000E+00  -9.58717897868252E-14
     -2.37110493353197E-10  -2.37206365142984E-10  -8.23440485125766E-18   8.40000000000000E-02   8.40000000000000E-02
      0.00000000000000E+00   0.00000000000000E+00   0.00000000000000E+00   0.00000000000000E+00   0.00000000000000E+00
      3.94897476346997E-17   2.70000000000000E-01   2.70000000000000E-01   0.00000000000000E+00   0.00000000000000E+00
      2.37201276139145E-10   5.08900383935326E-15   2.37206365142984E-10   1.88723301790789E-17   2.00000000000000E-01
      2.00000000000000E-01   0.00000000000000E+00   0.00000000000000E+00   0.00000000000000E+00   0.00000000000000E+00
      0.00000000000000E+00  -5.01276729625209E-17
      2.25000000000000E-01
      0.00000000000000E+00   0.00000000000000E+00   0.00000000000000E+00   0.00000000000000E+00  -9.73093788663060E-14
     -2.35406546960912E-10  -2.35503856339778E-10  -8.30659517688857E-18   9.00000000000000E-02   9.00000000000000E-02
      0.00000000000000E+00   0.00000000000000E+00   0.00000000000000E+00   0.00000000000000E+00   0.00000000000000E+00
      4.11972787156239E-17   2.70000000000000E-01   2.70000000000000E-01   0.00000000000000E+00   0.00000000000000E+00
      2.35498427880561E-10   5.42845921703379E-15   2.35503856339778E-10   1.88081335982521E-17   2.00000000000000E-01
      2.00000000000000E-01   0.00000000000000E+00   0.00000000000000E+00   0.00000000000000E+00   0.00000000000000E+00
      0.00000000000000E+00  -5.16988171369875E-17
      2.40000000000000E-01
      0.00000000000000E+00   0.00000000000000E+00   0.00000000000000E+00   0.00000000000000E+00  -9.87581819976494E-14
     -2.34080661065387E-10  -2.34179419247385E-10  -8.37852513878105E-18   9.60000000000000E-02   9.60000000000000E-02
      0.00000000000000E+00   0.00000000000000E+00   0.00000000000000E+00   0.00000000000000E+00   0.00000000000000E+00
      4.29046715674054E-17   2.70000000000000E-01   2.70000000000000E-01   0.00000000000000E+00   0.00000000000000E+00
      2.34173690470462E-10   5.72877692256362E-15   2.34179419247384E-10   1.87439534859881E-17   2.00000000000000E-01
      2.00000000000000E-01   0.00000000000000E+00   0.00000000000000E+00   0.00000000000000E+00   0.00000000000000E+00
      0.00000000000000E+00  -5.32700999146125E-17
      2.55000000000000E-01
      0.00000000000000E+00   0.00000000000000E+00   0.00000000000000E+00   0.00000000000000E+00  -1.00218115431767E-13
     -2.33117946273229E-10  -2.33218164388661E-10  -8.45020345034616E-18   1.02000000000000E-01   1.02000000000000E-01
      0.00000000000000E+00   0.00000000000000E+00   0.00000000000000E+00   0.00000000000000E+00   0.00000000000000E+00
      4.46119315918622E-17   2.70000000000000E-01   2.70000000000000E-01   0.00000000000000E+00   0.00000000000000E+00
      2.33212170694524E-10   5.99369413596911E-15   2.33218164388660E-10   1.86797877477156E-17   2.00000000000000E-01
      2.00000000000000E-01   0.00000000000000E+00   0.00000000000000E+00   0.00000000000000E+00   0.00000000000000E+00
      0.00000000000000E+00  -5.48415158892316E-17
      2.70000000000000E-01
      0.00000000000000E+00   0.00000000000000E+00   0.00000000000000E+00   0.00000000000000E+00  -1.01689089079858E-13
     -2.32504765495271E-10  -2.32606454584350E-10  -8.52163853429446E-18   1.08000000000000E-01   1.08000000000000E-01
      0.00000000000000E+00   0.00000000000000E+00   0.00000000000000E+00   0.00000000000000E+00   0.00000000000000E+00
      4.63190639395877E-17   2.70000000000000E-01   2.70000000000000E-01   0.00000000000000E+00   0.00000000000000E+00
      2.32600227974500E-10   6.22660985048054E-15   2.32606454584351E-10   1.86156344976279E-17   2.00000000000000E-01
      2.00000000000000E-01   0.00000000000000E+00   0.00000000000000E+00   0.00000000000000E+00   0.00000000000000E+00
      0.00000000000000E+00  -5.64130599029211E-17
      2.85000000000000E-01
      0.00000000000000E+00   0.00000000000000E+00   0.00000000000000E+00   0.00000000000000E+00  -1.03171006881751E-13
     -2.32228666481323E-10  -2.32331837488205E-10  -8.59283853117701E-18   1.14000000000000E-01   1.14000000000000E-01
      0.00000000000000E+00   0.00000000000000E+00   0.00000000000000E+00   0.00000000000000E+00   0.00000000000000E+00
      4.80260735256463E-17   2.70000000000000E-01   2.70000000000000E-01   0.00000000000000E+00   0.00000000000000E+00
      2.32325406851690E-10   6.43063651465714E-15   2.32331837488204E-10   1.85514920364993E-17   2.00000000000000E-01
      2.00000000000000E-01   0.00000000000000E+00   0.00000000000000E+00   0.00000000000000E+00   0.00000000000000E+00
      0.00000000000000E+00  -5.79847270309686E-17
      3.00000000000000E-01
      0.00000000000000E+00   0.00000000000000E+00   0.00000000000000E+00   0.00000000000000E+00  -1.04663767200335E-13
     -2.32278319966897E-10  -2.32382983734097E-10  -8.66381130779398E-18   1.20000000000000E-01   1.20000000000000E-01
      0.00000000000000E+00   0.00000000000000E+00   0.00000000000000E+00   0.00000000000000E+00   0.00000000000000E+00
      4.97329650439674E-17   2.70000000000000E-01   2.70000000000000E-01   0.00000000000000E+00   0.00000000000000E+00
      2.32376375138219E-10   6.60859587846568E-15   2.32382983734097E-10   1.84873588318637E-17   2.00000000000000E-01
      2.00000000000000E-01   0.00000000000000E+00   0.00000000000000E+00   0.00000000000000E+00   0.00000000000000E+00
      0.00000000000000E+00  -5.95565125680371E-17
      3.15000000000000E-01
      0.00000000000000E+00   0.00000000000000E+00   0.00000000000000E+00   0.00000000000000E+00  -1.06167263245609E-13
     -2.32643463488928E-10  -2.32749630752174E-10  -8.73456446546078E-18   1.26000000000000E-01   1.26000000000000E-01
      0.00000000000000E+00   0.00000000000000E+00   0.00000000000000E+00   0.00000000000000E+00   0.00000000000000E+00
      5.14397429805689E-17   2.70000000000000E-01   2.70000000000000E-01   0.00000000000000E+00   0.00000000000000E+00
      2.32742867691842E-10   6.76306033189742E-15   2.32749630752174E-10   1.84232335002998E-17   2.00000000000000E-01
      2.00000000000000E-01   0.00000000000000E+00   0.00000000000000E+00   0.00000000000000E+00   0.00000000000000E+00
      0.00000000000000E+00  -6.11284120154079E-17
      3.30000000000000E-01
      0.00000000000000E+00   0.00000000000000E+00   0.00000000000000E+00   0.00000000000000E+00  -1.07681383530334E-13
     -2.33314850771093E-10  -2.33422532154624E-10  -8.80510534812276E-18   1.32000000000000E-01   1.32000000000000E-01
      0.00000000000000E+00   0.00000000000000E+00   0.00000000000000E+00   0.00000000000000E+00   0.00000000000000E+00
      5.31464116257260E-17   2.70000000000000E-01   2.70000000000000E-01   0.00000000000000E+00   0.00000000000000E+00
      2.33415635785149E-10   6.89636947493173E-15   2.33422532154624E-10   1.83591147915962E-17   2.00000000000000E-01
      2.00000000000000E-01   0.00000000000000E+00   0.00000000000000E+00   0.00000000000000E+00   0.00000000000000E+00
      0.00000000000000E+00  -6.27004210691994E-17
      3.45000000000000E-01
      0.00000000000000E+00   0.00000000000000E+00   0.00000000000000E+00   0.00000000000000E+00  -1.09206012357571E-13
     -2.34284206686161E-10  -2.34393412698519E-10  -8.87544105031144E-18   1.38000000000000E-01   1.38000000000000E-01
      0.00000000000000E+00   0.00000000000000E+00   0.00000000000000E+00   0.00000000000000E+00   0.00000000000000E+00
      5.48529750851903E-17   2.70000000000000E-01   2.70000000000000E-01   0.00000000000000E+00   0.00000000000000E+00
      2.34386402056376E-10   7.01064214284987E-15   2.34393412698519E-10   1.82950015745912E-17   2.00000000000000E-01
      2.00000000000000E-01   0.00000000000000E+00   0.00000000000000E+00   0.00000000000000E+00   0.00000000000000E+00
      0.00000000000000E+00  -6.42725356094700E-17
      3.60000000000000E-01
      0.00000000000000E+00   0.00000000000000E+00   0.00000000000000E+00   0.00000000000000E+00  -1.10741030338766E-13
     -2.35544187820134E-10  -2.35654928850472E-10  -8.94557842493641E-18   1.44000000000000E-01   1.44000000000000E-01
      0.00000000000000E+00   0.00000000000000E+00   0.00000000000000E+00   0.00000000000000E+00   0.00000000000000E+00
      5.65594372905484E-17   2.70000000000000E-01   2.70000000000000E-01   0.00000000000000E+00   0.00000000000000E+00
      2.35647821046555E-10   7.10780391731922E-15   2.35654928850472E-10   1.82308928245098E-17   2.00000000000000E-01
      2.00000000000000E-01   0.00000000000000E+00   0.00000000000000E+00   0.00000000000000E+00   0.00000000000000E+00
      0.00000000000000E+00  -6.58447516901218E-17
      3.75000000000000E-01
      0.00000000000000E+00   0.00000000000000E+00   0.00000000000000E+00   0.00000000000000E+00  -1.12286314939300E-13
     -2.37088348627316E-10  -2.37200634942255E-10  -9.01552409090851E-18   1.50000000000000E-01   1.50000000000000E-01
      0.00000000000000E+00   0.00000000000000E+00   0.00000000000000E+00   0.00000000000000E+00   0.00000000000000E+00
      5.82658020088065E-17   2.70000000000000E-01   2.70000000000000E-01   0.00000000000000E+00   0.00000000000000E+00
      2.37193445346113E-10   7.18959614187456E-15   2.37200634942255E-10   1.81667876116336E-17   2.00000000000000E-01
      2.00000000000000E-01   0.00000000000000E+00   0.00000000000000E+00   0.00000000000000E+00   0.00000000000000E+00
      0.00000000000000E+00  -6.74170655295316E-17
      3.90000000000000E-01
      0.00000000000000E+00   0.00000000000000E+00   0.00000000000000E+00   0.00000000000000E+00  -1.13841741046944E-13
     -2.38911113248435E-10  -2.39024954989482E-10  -9.08528444059038E-18   1.56000000000000E-01   1.56000000000000E-01
      0.00000000000000E+00   0.00000000000000E+00   0.00000000000000E+00   0.00000000000000E+00   0.00000000000000E+00
      5.99720728512712E-17   2.70000000000000E-01   2.70000000000000E-01   0.00000000000000E+00   0.00000000000000E+00
      2.39017697393255E-10   7.25759622669642E-15   2.39024954989482E-10   1.81026850911630E-17   2.00000000000000E-01
      2.00000000000000E-01   0.00000000000000E+00   0.00000000000000E+00   0.00000000000000E+00   0.00000000000000E+00
      0.00000000000000E+00  -6.89894735018438E-17
      4.05000000000000E-01
      0.00000000000000E+00   0.00000000000000E+00   0.00000000000000E+00   0.00000000000000E+00  -1.15407181557207E-13
     -2.41007753040494E-10  -2.41123160222051E-10  -9.15486564707230E-18   1.62000000000000E-01   1.62000000000000E-01
      0.00000000000000E+00   0.00000000000000E+00   0.00000000000000E+00   0.00000000000000E+00   0.00000000000000E+00
      6.16782532817944E-17   2.70000000000000E-01   2.70000000000000E-01   0.00000000000000E+00   0.00000000000000E+00
      2.41115846986216E-10   7.31323583504805E-15   2.41123160222051E-10   1.80385844941414E-17   2.00000000000000E-01
      2.00000000000000E-01   0.00000000000000E+00   0.00000000000000E+00   0.00000000000000E+00   0.00000000000000E+00
      0.00000000000000E+00  -7.05619721288635E-17
      4.20000000000000E-01
      0.00000000000000E+00   0.00000000000000E+00   0.00000000000000E+00   0.00000000000000E+00  -1.16982507968437E-13
     -2.43374369884172E-10  -2.43491352392140E-10  -9.22427367127108E-18   1.68000000000000E-01   1.68000000000000E-01
      0.00000000000000E+00   0.00000000000000E+00   0.00000000000000E+00   0.00000000000000E+00   0.00000000000000E+00
      6.33843466244411E-17   2.70000000000000E-01   2.70000000000000E-01   0.00000000000000E+00   0.00000000000000E+00
      2.43483994591705E-10   7.35780043589340E-15   2.43491352392141E-10   1.79744851193287E-17   2.00000000000000E-01
      2.00000000000000E-01   0.00000000000000E+00   0.00000000000000E+00   0.00000000000000E+00   0.00000000000000E+00
      0.00000000000000E+00  -7.21345580724987E-17
      4.35000000000000E-01
      0.00000000000000E+00   0.00000000000000E+00   0.00000000000000E+00   0.00000000000000E+00  -1.18567590978643E-13
     -2.46007885416046E-10  -2.46126453007025E-10  -9.29351426885131E-18   1.74000000000000E-01   1.74000000000000E-01
      0.00000000000000E+00   0.00000000000000E+00   0.00000000000000E+00   0.00000000000000E+00   0.00000000000000E+00
      6.50903560706311E-17   2.70000000000000E-01   2.70000000000000E-01   0.00000000000000E+00   0.00000000000000E+00
      2.46119060552476E-10   7.39245454886149E-15   2.46126453007025E-10   1.79103863259225E-17   2.00000000000000E-01
      2.00000000000000E-01   0.00000000000000E+00   0.00000000000000E+00   0.00000000000000E+00   0.00000000000000E+00
      0.00000000000000E+00  -7.37072281277023E-17
      4.50000000000000E-01
      0.00000000000000E+00   0.00000000000000E+00   0.00000000000000E+00   0.00000000000000E+00  -1.20162301075368E-13
     -2.48906036264157E-10  -2.49026198565232E-10  -9.36259299696854E-18   1.80000000000000E-01   1.80000000000000E-01
      0.00000000000000E+00   0.00000000000000E+00   0.00000000000000E+00   0.00000000000000E+00   0.00000000000000E+00
      6.67962846858040E-17   2.70000000000000E-01   2.70000000000000E-01   0.00000000000000E+00   0.00000000000000E+00
      2.49018780317818E-10   7.41824741430762E-15   2.49026198565232E-10   1.78462875270354E-17   2.00000000000000E-01
      2.00000000000000E-01   0.00000000000000E+00   0.00000000000000E+00   0.00000000000000E+00   0.00000000000000E+00
      0.00000000000000E+00  -7.52799792158708E-17
      4.65000000000000E-01
      0.00000000000000E+00   0.00000000000000E+00   0.00000000000000E+00   0.00000000000000E+00  -1.21766509109691E-13
     -2.52067375456879E-10  -2.52189141965989E-10  -9.43151522083441E-18   1.86000000000000E-01   1.86000000000000E-01
      0.00000000000000E+00   0.00000000000000E+00   0.00000000000000E+00   0.00000000000000E+00   0.00000000000000E+00
      6.85021354156480E-17   2.70000000000000E-01   2.70000000000000E-01   0.00000000000000E+00   0.00000000000000E+00
      2.52181705841920E-10   7.43612406857599E-15   2.52189141965989E-10   1.77821881838482E-17   2.00000000000000E-01
      2.00000000000000E-01   0.00000000000000E+00   0.00000000000000E+00   0.00000000000000E+00   0.00000000000000E+00
      0.00000000000000E+00  -7.68528083786618E-17
      4.80000000000000E-01
      0.00000000000000E+00   0.00000000000000E+00   0.00000000000000E+00   0.00000000000000E+00  -1.23380086845427E-13
     -2.55491280163683E-10  -2.55614660250529E-10  -9.50028612010468E-18   1.92000000000000E-01   1.92000000000000E-01
      0.00000000000000E+00   0.00000000000000E+00   0.00000000000000E+00   0.00000000000000E+00   0.00000000000000E+00
      7.02079110919318E-17   2.70000000000000E-01   2.70000000000000E-01   0.00000000000000E+00   0.00000000000000E+00
      2.55607213316595E-10   7.44693393345113E-15   2.55614660250528E-10   1.77180878003664E-17   2.00000000000000E-01
      2.00000000000000E-01   0.00000000000000E+00   0.00000000000000E+00   0.00000000000000E+00   0.00000000000000E+00
      0.00000000000000E+00  -7.84257127721935E-17
      4.95000000000000E-01
      0.00000000000000E+00   0.00000000000000E+00   0.00000000000000E+00   0.00000000000000E+00  -1.25002907474935E-13
     -2.59177965960336E-10  -2.59302968867811E-10  -9.56891069509102E-18   1.98000000000000E-01   1.98000000000000E-01
      0.00000000000000E+00   0.00000000000000E+00   0.00000000000000E+00   0.00000000000000E+00   0.00000000000000E+00
      7.19136144379719E-17   2.70000000000000E-01   2.70000000000000E-01   0.00000000000000E+00   0.00000000000000E+00
      2.59295517426760E-10   7.45144105121189E-15   2.59302968867811E-10   1.76539859187167E-17   2.00000000000000E-01
      2.00000000000000E-01   0.00000000000000E+00   0.00000000000000E+00   0.00000000000000E+00   0.00000000000000E+00
      0.00000000000000E+00  -7.99986896615976E-17
      5.10000000000000E-01
      0.00000000000000E+00   0.00000000000000E+00   0.00000000000000E+00   0.00000000000000E+00  -1.26634846093534E-13
     -2.63128507826302E-10  -2.63255142672395E-10  -9.63739377279844E-18   2.04000000000000E-01   2.04000000000000E-01
      0.00000000000000E+00   0.00000000000000E+00   0.00000000000000E+00   0.00000000000000E+00   0.00000000000000E+00
      7.36192480737680E-17   2.70000000000000E-01   2.70000000000000E-01   0.00000000000000E+00   0.00000000000000E+00
      2.63247692339857E-10   7.45033253813724E-15   2.63255142672395E-10   1.75898821149244E-17   2.00000000000000E-01
      2.00000000000000E-01   0.00000000000000E+00   0.00000000000000E+00   0.00000000000000E+00   0.00000000000000E+00
      0.00000000000000E+00  -8.15717364158940E-17
      5.25000000000000E-01
      0.00000000000000E+00   0.00000000000000E+00   0.00000000000000E+00   0.00000000000000E+00  -1.28275780125373E-13
     -2.67344868107720E-10  -2.67473143887845E-10  -9.70574001278973E-18   2.10000000000000E-01   2.10000000000000E-01
      0.00000000000000E+00   0.00000000000000E+00   0.00000000000000E+00   0.00000000000000E+00   0.00000000000000E+00
      7.53248145208322E-17   2.70000000000000E-01   2.70000000000000E-01   0.00000000000000E+00   0.00000000000000E+00
      2.67465699664103E-10   7.44422374240286E-15   2.67473143887845E-10   1.75257759951211E-17   2.00000000000000E-01
      2.00000000000000E-01   0.00000000000000E+00   0.00000000000000E+00   0.00000000000000E+00   0.00000000000000E+00
      0.00000000000000E+00  -8.31448505031635E-17
      5.40000000000000E-01
      0.00000000000000E+00   0.00000000000000E+00   0.00000000000000E+00   0.00000000000000E+00  -1.29925589694641E-13
     -2.71829931712460E-10  -2.71959857302154E-10  -9.77395391287954E-18   2.16000000000000E-01   2.16000000000000E-01
      0.00000000000000E+00   0.00000000000000E+00   0.00000000000000E+00   0.00000000000000E+00   0.00000000000000E+00
      7.70303162067374E-17   2.70000000000000E-01   2.70000000000000E-01   0.00000000000000E+00   0.00000000000000E+00
      2.71952423635915E-10   7.43366623981918E-15   2.71959857302154E-10   1.74616671921378E-17   2.00000000000000E-01
      2.00000000000000E-01   0.00000000000000E+00   0.00000000000000E+00   0.00000000000000E+00   0.00000000000000E+00
      0.00000000000000E+00  -8.47180294859956E-17
      5.55000000000000E-01
      0.00000000000000E+00   0.00000000000000E+00   0.00000000000000E+00   0.00000000000000E+00  -1.31584157937282E-13