DF-ISE text

Info {
  version   = 1.0
  type      = xyplot
  datasets  = [
    "time"
    "source OuterVoltage" "source InnerVoltage" "source QuasiFermiPotential" "source DisplacementCurrent" "source eCurrent"
    "source hCurrent" "source TotalCurrent" "source Charge" "topGate OuterVoltage" "topGate InnerVoltage"
    "topGate QuasiFermiPotential" "topGate DisplacementCurrent" "topGate eCurrent" "topGate hCurrent" "topGate TotalCurrent"
    "topGate Charge" "drain OuterVoltage" "drain InnerVoltage" "drain QuasiFermiPotential" "drain DisplacementCurrent"
    "drain eCurrent" "drain hCurrent" "drain TotalCurrent" "drain Charge" "bottomGate OuterVoltage"
    "bottomGate InnerVoltage" "bottomGate QuasiFermiPotential" "bottomGate DisplacementCurrent" "bottomGate eCurrent" "bottomGate hCurrent"
    "bottomGate TotalCurrent" "bottomGate Charge" ]
  functions = [
    Time
    OuterVoltage InnerVoltage QuasiFermiPotential DisplacementCurrent eCurrent
    hCurrent TotalCurrent Charge OuterVoltage InnerVoltage
    QuasiFermiPotential DisplacementCurrent eCurrent hCurrent TotalCurrent
    Charge OuterVoltage InnerVoltage QuasiFermiPotential DisplacementCurrent
    eCurrent hCurrent TotalCurrent Charge OuterVoltage
    InnerVoltage QuasiFermiPotential DisplacementCurrent eCurrent hCurrent
    TotalCurrent Charge ]
}

Data {
      1.50000000000000E-02
      0.00000000000000E+00   0.00000000000000E+00   0.00000000000000E+00   0.00000000000000E+00  -8.24545971795122E-14
     -3.56544436095663E-11  -3.57368982067458E-11  -7.52114459526173E-18   6.00000000000000E-03   6.00000000000000E-03
      0.00000000000000E+00   0.00000000000000E+00   0.00000000000000E+00   0.00000000000000E+00   0.00000000000000E+00
      1.31133597415342E-17   1.70000000000000E-01   1.70000000000000E-01   0.00000000000000E+00   0.00000000000000E+00
      3.57295007876265E-11   7.39741911935211E-15   3.57368982067459E-11   1.73600475955548E-17   2.20000000000000E-01
      2.20000000000000E-01   0.00000000000000E+00   0.00000000000000E+00   0.00000000000000E+00   0.00000000000000E+00
      0.00000000000000E+00  -2.29522627418273E-17
      3.00000000000000E-02
      0.00000000000000E+00   0.00000000000000E+00   0.00000000000000E+00   0.00000000000000E+00  -8.37787342986270E-14
     -3.45648422087294E-11  -3.46486209430280E-11  -7.59636512404758E-18   1.20000000000000E-02   1.20000000000000E-02
      0.00000000000000E+00   0.00000000000000E+00   0.00000000000000E+00   0.00000000000000E+00   0.00000000000000E+00
      1.48226389420955E-17   1.70000000000000E-01   1.70000000000000E-01   0.00000000000000E+00   0.00000000000000E+00
      3.46412435766306E-11   7.37736639744520E-15   3.46486209430280E-11   1.72953895711168E-17   2.20000000000000E-01
      2.20000000000000E-01   0.00000000000000E+00   0.00000000000000E+00   0.00000000000000E+00   0.00000000000000E+00
      0.00000000000000E+00  -2.45216633891648E-17
      4.50000000000000E-02
      0.00000000000000E+00   0.00000000000000E+00   0.00000000000000E+00   0.00000000000000E+00  -8.51145441313665E-14
     -3.36109139801098E-11  -3.36960285242411E-11  -7.67122427916001E-18   1.80000000000000E-02   1.80000000000000E-02
      0.00000000000000E+00   0.00000000000000E+00   0.00000000000000E+00   0.00000000000000E+00   0.00000000000000E+00
      1.65317109977991E-17   1.70000000000000E-01   1.70000000000000E-01   0.00000000000000E+00   0.00000000000000E+00
      3.36886740768305E-11   7.35444741061266E-15   3.36960285242411E-11   1.72307837489333E-17   2.20000000000000E-01
      2.20000000000000E-01   0.00000000000000E+00   0.00000000000000E+00   0.00000000000000E+00   0.00000000000000E+00
      0.00000000000000E+00  -2.60912704675724E-17
      6.00000000000000E-02
      0.00000000000000E+00   0.00000000000000E+00   0.00000000000000E+00   0.00000000000000E+00  -8.64620162591884E-14
     -3.27825794710476E-11  -3.28690414873068E-11  -7.74573404226239E-18   2.40000000000000E-02   2.40000000000000E-02
      0.00000000000000E+00   0.00000000000000E+00   0.00000000000000E+00   0.00000000000000E+00   0.00000000000000E+00
      1.82405850784560E-17   1.70000000000000E-01   1.70000000000000E-01   0.00000000000000E+00   0.00000000000000E+00
      3.28617125084891E-11   7.32897881765552E-15   3.28690414873068E-11   1.71662239444706E-17   2.20000000000000E-01
      2.20000000000000E-01   0.00000000000000E+00   0.00000000000000E+00   0.00000000000000E+00   0.00000000000000E+00
      0.00000000000000E+00  -2.76610749806642E-17
      7.50000000000000E-02
      0.00000000000000E+00   0.00000000000000E+00   0.00000000000000E+00   0.00000000000000E+00  -8.78211315840282E-14
     -3.20707085839836E-11  -3.21585297155676E-11  -7.81990601854384E-18   3.00000000000000E-02   3.00000000000000E-02
      0.00000000000000E+00   0.00000000000000E+00   0.00000000000000E+00   0.00000000000000E+00   0.00000000000000E+00
      1.99492698292290E-17   1.70000000000000E-01   1.70000000000000E-01   0.00000000000000E+00   0.00000000000000E+00
      3.21512284572458E-11   7.30125832183864E-15   3.21585297155676E-11   1.71017046174426E-17   2.20000000000000E-01
      2.20000000000000E-01   0.00000000000000E+00   0.00000000000000E+00   0.00000000000000E+00   0.00000000000000E+00
      0.00000000000000E+00  -2.92310684281278E-17
      9.00000000000000E-02
      0.00000000000000E+00   0.00000000000000E+00   0.00000000000000E+00   0.00000000000000E+00  -8.91918627834322E-14
     -3.14670451428448E-11  -3.15562370056282E-11  -7.89375144544982E-18   3.60000000000000E-02   3.60000000000000E-02
      0.00000000000000E+00   0.00000000000000E+00   0.00000000000000E+00   0.00000000000000E+00   0.00000000000000E+00
      2.16577734121106E-17   1.70000000000000E-01   1.70000000000000E-01   0.00000000000000E+00   0.00000000000000E+00
      3.15489654645850E-11   7.27154104317774E-15   3.15562370056282E-11   1.70372208017120E-17   2.20000000000000E-01
      2.20000000000000E-01   0.00000000000000E+00   0.00000000000000E+00   0.00000000000000E+00   0.00000000000000E+00
      0.00000000000000E+00  -3.08012427683728E-17
      1.05000000000000E-01
      0.00000000000000E+00   0.00000000000000E+00   0.00000000000000E+00   0.00000000000000E+00  -9.05741747310102E-14
     -3.09641368533424E-11  -3.10547110280734E-11  -7.96728120153794E-18   4.20000000000000E-02   4.20000000000000E-02
      0.00000000000000E+00   0.00000000000000E+00   0.00000000000000E+00   0.00000000000000E+00   0.00000000000000E+00
      2.33661035433556E-17   1.70000000000000E-01   1.70000000000000E-01   0.00000000000000E+00   0.00000000000000E+00
      3.10474709694853E-11   7.24005858812815E-15   3.10547110280734E-11   1.69727680428497E-17   2.20000000000000E-01
      2.20000000000000E-01   0.00000000000000E+00   0.00000000000000E+00   0.00000000000000E+00   0.00000000000000E+00
      0.00000000000000E+00  -3.23715903846673E-17
      1.20000000000000E-01
      0.00000000000000E+00   0.00000000000000E+00   0.00000000000000E+00   0.00000000000000E+00  -9.19680248848593E-14
     -3.05552703815689E-11  -3.06472384064538E-11  -8.04050581541346E-18   4.80000000000000E-02   4.80000000000000E-02
      0.00000000000000E+00   0.00000000000000E+00   0.00000000000000E+00   0.00000000000000E+00   0.00000000000000E+00
      2.50742675273041E-17   1.70000000000000E-01   1.70000000000000E-01   0.00000000000000E+00   0.00000000000000E+00
      3.06400313838125E-11   7.20702264130913E-15   3.06472384064538E-11   1.69083423425060E-17   2.20000000000000E-01
      2.20000000000000E-01   0.00000000000000E+00   0.00000000000000E+00   0.00000000000000E+00   0.00000000000000E+00
      0.00000000000000E+00  -3.39421040543967E-17
      1.35000000000000E-01
      0.00000000000000E+00   0.00000000000000E+00   0.00000000000000E+00   0.00000000000000E+00  -9.33733636466428E-14
     -3.02344113324471E-11  -3.03277846960938E-11  -8.11343547470451E-18   5.40000000000000E-02   5.40000000000000E-02
      0.00000000000000E+00   0.00000000000000E+00   0.00000000000000E+00   0.00000000000000E+00   0.00000000000000E+00
      2.67822722869834E-17   1.70000000000000E-01   1.70000000000000E-01   0.00000000000000E+00   0.00000000000000E+00
      3.03206120843787E-11   7.17261171504466E-15   3.03277846960938E-11   1.68439401088420E-17   2.20000000000000E-01
      2.20000000000000E-01   0.00000000000000E+00   0.00000000000000E+00   0.00000000000000E+00   0.00000000000000E+00
      0.00000000000000E+00  -3.55127769211209E-17
      1.50000000000000E-01
      0.00000000000000E+00   0.00000000000000E+00   0.00000000000000E+00   0.00000000000000E+00  -9.47901346942186E-14
     -2.99961489569787E-11  -3.00909390916729E-11  -8.18608003504255E-18   6.00000000000000E-02   6.00000000000000E-02
      0.00000000000000E+00   0.00000000000000E+00   0.00000000000000E+00   0.00000000000000E+00   0.00000000000000E+00
      2.84901243918341E-17   1.70000000000000E-01   1.70000000000000E-01   0.00000000000000E+00   0.00000000000000E+00
      3.00838021072490E-11   7.13698442392777E-15   3.00909390916729E-11   1.67795581123498E-17   2.20000000000000E-01
      2.20000000000000E-01   0.00000000000000E+00   0.00000000000000E+00   0.00000000000000E+00   0.00000000000000E+00
      0.00000000000000E+00  -3.70836024691413E-17
      1.65000000000000E-01
      0.00000000000000E+00   0.00000000000000E+00   0.00000000000000E+00   0.00000000000000E+00  -9.62182752909910E-14
     -2.98356453479332E-11  -2.99318636232242E-11  -8.25844902901776E-18   6.60000000000000E-02   6.60000000000000E-02
      0.00000000000000E+00   0.00000000000000E+00   0.00000000000000E+00   0.00000000000000E+00   0.00000000000000E+00
      3.01978300828661E-17   1.70000000000000E-01   1.70000000000000E-01   0.00000000000000E+00   0.00000000000000E+00
      2.99247633348786E-11   7.10028834561247E-15   2.99318636232242E-11   1.67151934464708E-17   2.20000000000000E-01
      2.20000000000000E-01   0.00000000000000E+00   0.00000000000000E+00   0.00000000000000E+00   0.00000000000000E+00
      0.00000000000000E+00  -3.86545745003192E-17
      1.80000000000000E-01
      0.00000000000000E+00   0.00000000000000E+00   0.00000000000000E+00   0.00000000000000E+00  -9.76577165755286E-14
     -2.97485889135482E-11  -2.98462466301237E-11  -8.33055167508333E-18   7.20000000000000E-02   7.20000000000000E-02
      0.00000000000000E+00   0.00000000000000E+00   0.00000000000000E+00   0.00000000000000E+00   0.00000000000000E+00
      3.19053952955179E-17   1.70000000000000E-01   1.70000000000000E-01   0.00000000000000E+00   0.00000000000000E+00
      2.98391839740122E-11   7.06265611153954E-15   2.98462466301237E-11   1.66508434924798E-17   2.20000000000000E-01
      2.20000000000000E-01   0.00000000000000E+00   0.00000000000000E+00   0.00000000000000E+00   0.00000000000000E+00
      0.00000000000000E+00  -4.02256871129144E-17
      1.95000000000000E-01
      0.00000000000000E+00   0.00000000000000E+00   0.00000000000000E+00   0.00000000000000E+00  -9.91083838353823E-14
     -2.97311519424571E-11  -2.98302603262925E-11  -8.40239688638603E-18   7.80000000000000E-02   7.80000000000000E-02
      0.00000000000000E+00   0.00000000000000E+00   0.00000000000000E+00   0.00000000000000E+00   0.00000000000000E+00
      3.36128256804594E-17   1.70000000000000E-01   1.70000000000000E-01   0.00000000000000E+00   0.00000000000000E+00
      2.98232361319382E-11   7.02419435429438E-15   2.98302603262925E-11   1.65865058881675E-17   2.20000000000000E-01
      2.20000000000000E-01   0.00000000000000E+00   0.00000000000000E+00   0.00000000000000E+00   0.00000000000000E+00
      0.00000000000000E+00  -4.17969346822409E-17
      2.10000000000000E-01
      0.00000000000000E+00   0.00000000000000E+00   0.00000000000000E+00   0.00000000000000E+00  -1.00570196769377E-13
     -2.97799521217420E-11  -2.98805223185114E-11  -8.47399327950393E-18   8.40000000000000E-02   8.40000000000000E-02
      0.00000000000000E+00   0.00000000000000E+00   0.00000000000000E+00   0.00000000000000E+00   0.00000000000000E+00
      3.53201266225555E-17   1.70000000000000E-01   1.70000000000000E-01   0.00000000000000E+00   0.00000000000000E+00
      2.98735373106139E-11   6.98500789742379E-15   2.98805223185114E-11   1.65221784999032E-17   2.20000000000000E-01
      2.20000000000000E-01   0.00000000000000E+00   0.00000000000000E+00   0.00000000000000E+00   0.00000000000000E+00
      0.00000000000000E+00  -4.33683118429547E-17
      2.25000000000000E-01
      0.00000000000000E+00   0.00000000000000E+00   0.00000000000000E+00   0.00000000000000E+00  -1.02043069742903E-13
     -2.98920177621770E-11  -2.99940608319199E-11  -8.54534918307433E-18   9.00000000000000E-02   9.00000000000000E-02
      0.00000000000000E+00   0.00000000000000E+00   0.00000000000000E+00   0.00000000000000E+00   0.00000000000000E+00
      3.70273032581807E-17   1.70000000000000E-01   1.70000000000000E-01   0.00000000000000E+00   0.00000000000000E+00
      2.99871156522595E-11   6.94517966034234E-15   2.99940608319199E-11   1.64578593977049E-17   2.20000000000000E-01
      2.20000000000000E-01   0.00000000000000E+00   0.00000000000000E+00   0.00000000000000E+00   0.00000000000000E+00
      0.00000000000000E+00  -4.49398134728112E-17
      2.40000000000000E-01
      0.00000000000000E+00   0.00000000000000E+00   0.00000000000000E+00   0.00000000000000E+00  -1.03526912040897E-13
     -3.00647566704141E-11  -3.01682835824550E-11  -8.61647264629812E-18   9.60000000000000E-02   9.60000000000000E-02
      0.00000000000000E+00   0.00000000000000E+00   0.00000000000000E+00   0.00000000000000E+00   0.00000000000000E+00
      3.87343604910549E-17   1.70000000000000E-01   1.70000000000000E-01   0.00000000000000E+00   0.00000000000000E+00
      3.01613787861248E-11   6.90479633022633E-15   3.01682835824551E-11   1.63935468329886E-17   2.20000000000000E-01
      2.20000000000000E-01   0.00000000000000E+00   0.00000000000000E+00   0.00000000000000E+00   0.00000000000000E+00
      0.00000000000000E+00  -4.65114346777454E-17
      2.55000000000000E-01
      0.00000000000000E+00   0.00000000000000E+00   0.00000000000000E+00   0.00000000000000E+00  -1.05021628123162E-13
     -3.02959284370487E-11  -3.04009500651718E-11  -8.68737144730835E-18   1.02000000000000E-01   1.02000000000000E-01
      0.00000000000000E+00   0.00000000000000E+00   0.00000000000000E+00   0.00000000000000E+00   0.00000000000000E+00
      4.04413030067523E-17   1.70000000000000E-01   1.70000000000000E-01   0.00000000000000E+00   0.00000000000000E+00
      3.03940861441176E-11   6.86392105425967E-15   3.04009500651718E-11   1.63292392187015E-17   2.20000000000000E-01
      2.20000000000000E-01   0.00000000000000E+00   0.00000000000000E+00   0.00000000000000E+00   0.00000000000000E+00
      0.00000000000000E+00  -4.80831707781455E-17
      2.70000000000000E-01
      0.00000000000000E+00   0.00000000000000E+00   0.00000000000000E+00   0.00000000000000E+00  -1.06527117886498E-13
     -3.05836201337501E-11  -3.06901472516366E-11  -8.75805310139334E-18   1.08000000000000E-01   1.08000000000000E-01
      0.00000000000000E+00   0.00000000000000E+00   0.00000000000000E+00   0.00000000000000E+00   0.00000000000000E+00
      4.21481352860181E-17   1.70000000000000E-01   1.70000000000000E-01   0.00000000000000E+00   0.00000000000000E+00
      3.06833246326266E-11   6.82261901004154E-15   3.06901472516366E-11   1.62649351115780E-17   2.20000000000000E-01
      2.20000000000000E-01   0.00000000000000E+00   0.00000000000000E+00   0.00000000000000E+00   0.00000000000000E+00
      0.00000000000000E+00  -4.96550172962028E-17
      2.85000000000000E-01
      0.00000000000000E+00   0.00000000000000E+00   0.00000000000000E+00   0.00000000000000E+00  -1.08043276937721E-13
     -3.09262252338424E-11  -3.10342685107801E-11  -8.82852486906569E-18   1.14000000000000E-01   1.14000000000000E-01
      0.00000000000000E+00   0.00000000000000E+00   0.00000000000000E+00   0.00000000000000E+00   0.00000000000000E+00
      4.38548616170127E-17   1.70000000000000E-01   1.70000000000000E-01   0.00000000000000E+00   0.00000000000000E+00
      3.10274875689911E-11   6.78094178900258E-15   3.10342685107801E-11   1.62006331962864E-17   2.20000000000000E-01
      2.20000000000000E-01   0.00000000000000E+00   0.00000000000000E+00   0.00000000000000E+00   0.00000000000000E+00
      0.00000000000000E+00  -5.12269699442334E-17
      3.00000000000000E-01
      0.00000000000000E+00   0.00000000000000E+00   0.00000000000000E+00   0.00000000000000E+00  -1.09569996881093E-13
     -3.13224257544980E-11  -3.14319957513791E-11  -8.89879376397064E-18   1.20000000000000E-01   1.20000000000000E-01
      0.00000000000000E+00   0.00000000000000E+00   0.00000000000000E+00   0.00000000000000E+00   0.00000000000000E+00
      4.55614861065908E-17   1.70000000000000E-01   1.70000000000000E-01   0.00000000000000E+00   0.00000000000000E+00
      3.14252568133913E-11   6.73893798780904E-15   3.14319957513791E-11   1.61363322712600E-17   2.20000000000000E-01
      2.20000000000000E-01   0.00000000000000E+00   0.00000000000000E+00   0.00000000000000E+00   0.00000000000000E+00
      0.00000000000000E+00  -5.27990246138801E-17
      3.15000000000000E-01
      0.00000000000000E+00   0.00000000000000E+00   0.00000000000000E+00   0.00000000000000E+00  -1.11107165622920E-13
     -3.17711775359835E-11  -3.18822847016064E-11  -8.96886656062841E-18   1.26000000000000E-01   1.26000000000000E-01
      0.00000000000000E+00   0.00000000000000E+00   0.00000000000000E+00   0.00000000000000E+00   0.00000000000000E+00
      4.72680126907105E-17   1.70000000000000E-01   1.70000000000000E-01   0.00000000000000E+00   0.00000000000000E+00
      3.18755880502377E-11   6.69665136868123E-15   3.18822847016064E-11   1.60720312360266E-17   2.20000000000000E-01
      2.20000000000000E-01   0.00000000000000E+00   0.00000000000000E+00   0.00000000000000E+00   0.00000000000000E+00
      0.00000000000000E+00  -5.43711773661088E-17
      3.30000000000000E-01
      0.00000000000000E+00   0.00000000000000E+00   0.00000000000000E+00   0.00000000000000E+00  -1.12654667695223E-13
     -3.22716986483423E-11  -3.23843533160375E-11  -9.03874980200585E-18   1.32000000000000E-01   1.32000000000000E-01
      0.00000000000000E+00   0.00000000000000E+00   0.00000000000000E+00   0.00000000000000E+00   0.00000000000000E+00
      4.89744451440576E-17   1.70000000000000E-01   1.70000000000000E-01   0.00000000000000E+00   0.00000000000000E+00
      3.23776991971339E-11   6.65411890370799E-15   3.23843533160376E-11   1.60077290798754E-17   2.20000000000000E-01
      2.20000000000000E-01   0.00000000000000E+00   0.00000000000000E+00   0.00000000000000E+00   0.00000000000000E+00
      0.00000000000000E+00  -5.59434244219271E-17
      3.45000000000000E-01
      0.00000000000000E+00   0.00000000000000E+00   0.00000000000000E+00   0.00000000000000E+00  -1.14212384599358E-13
     -3.28234609315683E-11  -3.29376733161676E-11  -9.10844980691461E-18   1.38000000000000E-01   1.38000000000000E-01
      0.00000000000000E+00   0.00000000000000E+00   0.00000000000000E+00   0.00000000000000E+00   0.00000000000000E+00
      5.06807870889598E-17   1.70000000000000E-01   1.70000000000000E-01   0.00000000000000E+00   0.00000000000000E+00
      3.29310619439325E-11   6.61137223524052E-15   3.29376733161677E-11   1.59434248717123E-17   2.20000000000000E-01
      2.20000000000000E-01   0.00000000000000E+00   0.00000000000000E+00   0.00000000000000E+00   0.00000000000000E+00
      0.00000000000000E+00  -5.75157621537575E-17
      3.60000000000000E-01
      0.00000000000000E+00   0.00000000000000E+00   0.00000000000000E+00   0.00000000000000E+00  -1.15780195169481E-13
     -3.34261846951243E-11  -3.35419648902938E-11  -9.17797267723340E-18   1.44000000000000E-01   1.44000000000000E-01
      0.00000000000000E+00   0.00000000000000E+00   0.00000000000000E+00   0.00000000000000E+00   0.00000000000000E+00
      5.23870420036605E-17   1.70000000000000E-01   1.70000000000000E-01   0.00000000000000E+00   0.00000000000000E+00
      3.35353964490234E-11   6.56844127054197E-15   3.35419648902939E-11   1.58791177509776E-17   2.20000000000000E-01
      2.20000000000000E-01   0.00000000000000E+00   0.00000000000000E+00   0.00000000000000E+00   0.00000000000000E+00
      0.00000000000000E+00  -5.90881870774047E-17
      3.75000000000000E-01
      0.00000000000000E+00   0.00000000000000E+00   0.00000000000000E+00   0.00000000000000E+00  -1.17357975954537E-13
     -3.40798366192364E-11  -3.41971945951909E-11  -9.24732430495247E-18   1.50000000000000E-01   1.50000000000000E-01
      0.00000000000000E+00   0.00000000000000E+00   0.00000000000000E+00   0.00000000000000E+00   0.00000000000000E+00
      5.40932132300105E-17   1.70000000000000E-01   1.70000000000000E-01   0.00000000000000E+00   0.00000000000000E+00
      3.41906692445429E-11   6.52535064806152E-15   3.41971945951910E-11   1.58148069195061E-17   2.20000000000000E-01
      2.20000000000000E-01   0.00000000000000E+00   0.00000000000000E+00   0.00000000000000E+00   0.00000000000000E+00
      0.00000000000000E+00  -6.06606958445641E-17
      3.90000000000000E-01
      0.00000000000000E+00   0.00000000000000E+00   0.00000000000000E+00   0.00000000000000E+00  -1.18945601616579E-13
     -3.47846309492059E-11  -3.49035765508225E-11  -9.31651037904020E-18   1.56000000000000E-01   1.56000000000000E-01
      0.00000000000000E+00   0.00000000000000E+00   0.00000000000000E+00   0.00000000000000E+00   0.00000000000000E+00
      5.57993039806332E-17   1.70000000000000E-01   1.70000000000000E-01   0.00000000000000E+00   0.00000000000000E+00
      3.48970944264387E-11   6.48212438385049E-15   3.49035765508225E-11   1.57504916342304E-17   2.20000000000000E-01
      2.20000000000000E-01   0.00000000000000E+00   0.00000000000000E+00   0.00000000000000E+00   0.00000000000000E+00
      0.00000000000000E+00  -6.22332852358234E-17
      4.05000000000000E-01
      0.00000000000000E+00   0.00000000000000E+00   0.00000000000000E+00   0.00000000000000E+00  -1.20542945342065E-13
     -3.55410340649477E-11  -3.56615770102898E-11  -9.38553639213088E-18   1.62000000000000E-01   1.62000000000000E-01
      0.00000000000000E+00   0.00000000000000E+00   0.00000000000000E+00   0.00000000000000E+00   0.00000000000000E+00
      5.75053173456103E-17   1.70000000000000E-01   1.70000000000000E-01   0.00000000000000E+00   0.00000000000000E+00
      3.56551382290509E-11   6.43878123881792E-15   3.56615770102897E-11   1.56861712006338E-17   2.20000000000000E-01
      2.20000000000000E-01   0.00000000000000E+00   0.00000000000000E+00   0.00000000000000E+00   0.00000000000000E+00
      0.00000000000000E+00  -6.38059521541132E-17
      4.20000000000000E-01
      0.00000000000000E+00   0.00000000000000E+00   0.00000000000000E+00   0.00000000000000E+00  -1.22149879262076E-13
     -3.63497725665331E-11  -3.64719224457952E-11  -9.45440764703463E-18   1.68000000000000E-01   1.68000000000000E-01
      0.00000000000000E+00   0.00000000000000E+00   0.00000000000000E+00   0.00000000000000E+00   0.00000000000000E+00
      5.92112562987322E-17   1.70000000000000E-01   1.70000000000000E-01   0.00000000000000E+00   0.00000000000000E+00
      3.64655271069030E-11   6.39533889219950E-15   3.64719224457952E-11   1.56218449668712E-17   2.20000000000000E-01
      2.20000000000000E-01   0.00000000000000E+00   0.00000000000000E+00   0.00000000000000E+00   0.00000000000000E+00
      0.00000000000000E+00  -6.53786936185688E-17
      4.35000000000000E-01
      0.00000000000000E+00   0.00000000000000E+00   0.00000000000000E+00   0.00000000000000E+00  -1.23766274876529E-13
     -3.72118450055547E-11  -3.73356112804312E-11  -9.52312926306998E-18   1.74000000000000E-01   1.74000000000000E-01
      0.00000000000000E+00   0.00000000000000E+00   0.00000000000000E+00   0.00000000000000E+00   0.00000000000000E+00
      6.09171237033521E-17   1.70000000000000E-01   1.70000000000000E-01   0.00000000000000E+00   0.00000000000000E+00
      3.73292594685705E-11   6.35181186068605E-15   3.73356112804311E-11   1.55575123184857E-17   2.20000000000000E-01
      2.20000000000000E-01   0.00000000000000E+00   0.00000000000000E+00   0.00000000000000E+00   0.00000000000000E+00
      0.00000000000000E+00  -6.69515067587678E-17
      4.50000000000000E-01
      0.00000000000000E+00   0.00000000000000E+00   0.00000000000000E+00   0.00000000000000E+00  -1.25392003477081E-13
     -3.81285374392709E-11  -3.82539294427479E-11  -9.59170618222063E-18   1.80000000000000E-01   1.80000000000000E-01
      0.00000000000000E+00   0.00000000000000E+00   0.00000000000000E+00   0.00000000000000E+00   0.00000000000000E+00
      6.26229223178765E-17   1.70000000000000E-01   1.70000000000000E-01   0.00000000000000E+00   0.00000000000000E+00
      3.82476212287244E-11   6.30821402356202E-15   3.82539294427480E-11   1.54931726736549E-17   2.20000000000000E-01
      2.20000000000000E-01   0.00000000000000E+00   0.00000000000000E+00   0.00000000000000E+00   0.00000000000000E+00
      0.00000000000000E+00  -6.85243888093108E-17
      4.65000000000000E-01
      0.00000000000000E+00   0.00000000000000E+00   0.00000000000000E+00   0.00000000000000E+00  -1.27026936562849E-13
     -3.91014429851740E-11  -3.92284699217369E-11  -9.66014317511784E-18   1.86000000000000E-01   1.86000000000000E-01
      0.00000000000000E+00   0.00000000000000E+00   0.00000000000000E+00   0.00000000000000E+00   0.00000000000000E+00
      6.43286548009265E-17   1.70000000000000E-01   1.70000000000000E-01   0.00000000000000E+00   0.00000000000000E+00
      3.92222053646374E-11   6.26455709931283E-15   3.92284699217368E-11   1.54288254789113E-17   2.20000000000000E-01
      2.20000000000000E-01   0.00000000000000E+00   0.00000000000000E+00   0.00000000000000E+00   0.00000000000000E+00
      0.00000000000000E+00  -7.00973371047199E-17
      4.80000000000000E-01
      0.00000000000000E+00   0.00000000000000E+00   0.00000000000000E+00   0.00000000000000E+00  -1.28670946243124E-13
     -4.01324855868521E-11  -4.02611565330952E-11  -9.72844484685041E-18   1.92000000000000E-01   1.92000000000000E-01
      0.00000000000000E+00   0.00000000000000E+00   0.00000000000000E+00   0.00000000000000E+00   0.00000000000000E+00
      6.60343237161944E-17   1.70000000000000E-01   1.70000000000000E-01   0.00000000000000E+00   0.00000000000000E+00
      4.02549356826008E-11   6.22085049437938E-15   4.02611565330952E-11   1.53644702052811E-17   2.20000000000000E-01
      2.20000000000000E-01   0.00000000000000E+00   0.00000000000000E+00   0.00000000000000E+00   0.00000000000000E+00
      0.00000000000000E+00  -7.16703490746251E-17
      4.95000000000000E-01
      0.00000000000000E+00   0.00000000000000E+00   0.00000000000000E+00   0.00000000000000E+00  -1.30323905621244E-13
     -4.12239482149429E-11  -4.13542721205641E-11  -9.79661564260481E-18   1.98000000000000E-01   1.98000000000000E-01
      0.00000000000000E+00   0.00000000000000E+00   0.00000000000000E+00   0.00000000000000E+00   0.00000000000000E+00
      6.77399315370240E-17   1.70000000000000E-01   1.70000000000000E-01   0.00000000000000E+00   0.00000000000000E+00
      4.13480950178513E-11   6.17710271285641E-15   4.13542721205641E-11   1.53001063448005E-17   2.20000000000000E-01
      2.20000000000000E-01   0.00000000000000E+00   0.00000000000000E+00   0.00000000000000E+00   0.00000000000000E+00
      0.00000000000000E+00  -7.32434222392196E-17
      5.10000000000000E-01
      0.00000000000000E+00   0.00000000000000E+00   0.00000000000000E+00   0.00000000000000E+00  -1.31985689153955E-13
     -4.23785057418234E-11  -4.25104914309774E-11  -9.86465985313751E-18   2.04000000000000E-01   2.04000000000000E-01
      0.00000000000000E+00   0.00000000000000E+00   0.00000000000000E+00   0.00000000000000E+00   0.00000000000000E+00
      6.94454806507347E-17   1.70000000000000E-01   1.70000000000000E-01   0.00000000000000E+00   0.00000000000000E+00
      4.25043581088707E-11   6.13332210675236E-15   4.25104914309774E-11   1.52357334073631E-17   2.20000000000000E-01
      2.20000000000000E-01   0.00000000000000E+00   0.00000000000000E+00   0.00000000000000E+00   0.00000000000000E+00
      0.00000000000000E+00  -7.48165542049604E-17
      5.25000000000000E-01
      0.00000000000000E+00   0.00000000000000E+00   0.00000000000000E+00   0.00000000000000E+00  -1.33656172981059E-13
     -4.35992627443265E-11  -4.37329189173076E-11  -9.93258162008253E-18   2.10000000000000E-01   2.10000000000000E-01
      0.00000000000000E+00   0.00000000000000E+00   0.00000000000000E+00   0.00000000000000E+00   0.00000000000000E+00
      7.11509733627122E-17   1.70000000000000E-01   1.70000000000000E-01   0.00000000000000E+00   0.00000000000000E+00
      4.37268294034556E-11   6.08951385196213E-15   4.37329189173076E-11   1.51713509178661E-17   2.20000000000000E-01
      2.20000000000000E-01   0.00000000000000E+00   0.00000000000000E+00   0.00000000000000E+00   0.00000000000000E+00
      0.00000000000000E+00  -7.63897426604959E-17
      5.40000000000000E-01
      0.00000000000000E+00   0.00000000000000E+00   0.00000000000000E+00   0.00000000000000E+00  -1.35335235220840E-13
     -4.48897965179555E-11  -4.50251317531763E-11  -1.00003849410969E-17   2.16000000000000E-01   2.16000000000000E-01
      0.00000000000000E+00   0.00000000000000E+00   0.00000000000000E+00   0.00000000000000E+00   0.00000000000000E+00
      7.28564119002817E-17   1.70000000000000E-01   1.70000000000000E-01   0.00000000000000E+00   0.00000000000000E+00
      4.50190860700438E-11   6.04568313255828E-15   4.50251317531763E-11   1.51069584136190E-17   2.20000000000000E-01
      2.20000000000000E-01   0.00000000000000E+00   0.00000000000000E+00   0.00000000000000E+00   0.00000000000000E+00
      0.00000000000000E+00  -7.79629853728038E-17
      5.55000000000000E-01
      0.00000000000000E+00   0.00000000000000E+00   0.00000000000000E+00   0.00000000000000E+00  -1.37022756227282E-13