DF-ISE text

Info {
  version   = 1.0
  type      = xyplot
  datasets  = [
    "time"
    "source OuterVoltage" "source InnerVoltage" "source QuasiFermiPotential" "source DisplacementCurrent" "source eCurrent"
    "source hCurrent" "source TotalCurrent" "source Charge" "topGate OuterVoltage" "topGate InnerVoltage"
    "topGate QuasiFermiPotential" "topGate DisplacementCurrent" "topGate eCurrent" "topGate hCurrent" "topGate TotalCurrent"
    "topGate Charge" "drain OuterVoltage" "drain InnerVoltage" "drain QuasiFermiPotential" "drain DisplacementCurrent"
    "drain eCurrent" "drain hCurrent" "drain TotalCurrent" "drain Charge" "bottomGate OuterVoltage"
    "bottomGate InnerVoltage" "bottomGate QuasiFermiPotential" "bottomGate DisplacementCurrent" "bottomGate eCurrent" "bottomGate hCurrent"
    "bottomGate TotalCurrent" "bottomGate Charge" ]
  functions = [
    Time
    OuterVoltage InnerVoltage QuasiFermiPotential DisplacementCurrent eCurrent
    hCurrent TotalCurrent Charge OuterVoltage InnerVoltage
    QuasiFermiPotential DisplacementCurrent eCurrent hCurrent TotalCurrent
    Charge OuterVoltage InnerVoltage QuasiFermiPotential DisplacementCurrent
    eCurrent hCurrent TotalCurrent Charge OuterVoltage
    InnerVoltage QuasiFermiPotential DisplacementCurrent eCurrent hCurrent
    TotalCurrent Charge ]
}

Data {
      1.50000000000000E-02
      0.00000000000000E+00   0.00000000000000E+00   0.00000000000000E+00   0.00000000000000E+00  -6.79313781656835E-14
     -7.37340368023890E-10  -7.37408299402056E-10  -6.61239735858776E-18   6.00000000000000E-03   6.00000000000000E-03
      0.00000000000000E+00   0.00000000000000E+00   0.00000000000000E+00   0.00000000000000E+00   0.00000000000000E+00
      3.01243116064935E-17   2.90000000000000E-01   2.90000000000000E-01   0.00000000000000E+00   0.00000000000000E+00
      7.37461774018692E-10  -5.34746166364517E-14   7.37408299402055E-10   2.06814555036262E-17   1.50000000000000E-01
      1.50000000000000E-01   0.00000000000000E+00   0.00000000000000E+00   0.00000000000000E+00   0.00000000000000E+00
      0.00000000000000E+00  -4.41933697515320E-17
      3.00000000000000E-02
      0.00000000000000E+00   0.00000000000000E+00   0.00000000000000E+00   0.00000000000000E+00  -6.91267700948004E-14
     -7.22773897413292E-10  -7.22843024183387E-10  -6.69285420552060E-18   1.20000000000000E-02   1.20000000000000E-02
      0.00000000000000E+00   0.00000000000000E+00   0.00000000000000E+00   0.00000000000000E+00   0.00000000000000E+00
      3.18368282306821E-17   2.90000000000000E-01   2.90000000000000E-01   0.00000000000000E+00   0.00000000000000E+00
      7.22890933729117E-10  -4.79095457302417E-14   7.22843024183387E-10   2.06155072354469E-17   1.50000000000000E-01
      1.50000000000000E-01   0.00000000000000E+00   0.00000000000000E+00   0.00000000000000E+00   0.00000000000000E+00
      0.00000000000000E+00  -4.57594812606084E-17
      4.50000000000000E-02
      0.00000000000000E+00   0.00000000000000E+00   0.00000000000000E+00   0.00000000000000E+00  -7.03328027816592E-14
     -7.09414849858973E-10  -7.09485182661754E-10  -6.77277970064821E-18   1.80000000000000E-02   1.80000000000000E-02
      0.00000000000000E+00   0.00000000000000E+00   0.00000000000000E+00   0.00000000000000E+00   0.00000000000000E+00
      3.35489788411861E-17   2.90000000000000E-01   2.90000000000000E-01   0.00000000000000E+00   0.00000000000000E+00
      7.09527985931510E-10  -4.28032697554152E-14   7.09485182661755E-10   2.05497616881954E-17   1.50000000000000E-01
      1.50000000000000E-01   0.00000000000000E+00   0.00000000000000E+00   0.00000000000000E+00   0.00000000000000E+00
      0.00000000000000E+00  -4.73259608287332E-17
      6.00000000000000E-02
      0.00000000000000E+00   0.00000000000000E+00   0.00000000000000E+00   0.00000000000000E+00  -7.15496396797552E-14
     -6.97210743440774E-10  -6.97282293080453E-10  -6.85219073140288E-18   2.40000000000000E-02   2.40000000000000E-02
      0.00000000000000E+00   0.00000000000000E+00   0.00000000000000E+00   0.00000000000000E+00   0.00000000000000E+00
      3.52607824826237E-17   2.90000000000000E-01   2.90000000000000E-01   0.00000000000000E+00   0.00000000000000E+00
      6.97320414820603E-10  -3.81217401494538E-14   6.97282293080454E-10   2.04841978014296E-17   1.50000000000000E-01
      1.50000000000000E-01   0.00000000000000E+00   0.00000000000000E+00   0.00000000000000E+00   0.00000000000000E+00
      0.00000000000000E+00  -4.88927895526504E-17
      7.50000000000000E-02
      0.00000000000000E+00   0.00000000000000E+00   0.00000000000000E+00   0.00000000000000E+00  -7.27774244727681E-14
     -6.86112240242314E-10  -6.86185017666787E-10  -6.93110373921896E-18   3.00000000000000E-02   3.00000000000000E-02
      0.00000000000000E+00   0.00000000000000E+00   0.00000000000000E+00   0.00000000000000E+00   0.00000000000000E+00
      3.69722568578235E-17   2.90000000000000E-01   2.90000000000000E-01   0.00000000000000E+00   0.00000000000000E+00
      6.86218850740171E-10  -3.38330733841669E-14   6.86185017666787E-10   2.04187967015241E-17   1.50000000000000E-01
      1.50000000000000E-01   0.00000000000000E+00   0.00000000000000E+00   0.00000000000000E+00   0.00000000000000E+00
      0.00000000000000E+00  -5.04599498201287E-17
      9.00000000000000E-02
      0.00000000000000E+00   0.00000000000000E+00   0.00000000000000E+00   0.00000000000000E+00  -7.40162818480601E-14
     -6.76072996022709E-10  -6.76147012304557E-10  -7.00953472109113E-18   3.60000000000000E-02   3.60000000000000E-02
      0.00000000000000E+00   0.00000000000000E+00   0.00000000000000E+00   0.00000000000000E+00   0.00000000000000E+00
      3.86834184482282E-17   2.90000000000000E-01   2.90000000000000E-01   0.00000000000000E+00   0.00000000000000E+00
      6.76176919915616E-10  -2.99076110587119E-14   6.76147012304558E-10   2.03535414714886E-17   1.50000000000000E-01
      1.50000000000000E-01   0.00000000000000E+00   0.00000000000000E+00   0.00000000000000E+00   0.00000000000000E+00
      0.00000000000000E+00  -5.20274251986257E-17
      1.05000000000000E-01
      0.00000000000000E+00   0.00000000000000E+00   0.00000000000000E+00   0.00000000000000E+00  -7.52663181723337E-14
     -6.67049516791094E-10  -6.67124783109266E-10  -7.08749923241522E-18   4.20000000000000E-02   4.20000000000000E-02
      0.00000000000000E+00   0.00000000000000E+00   0.00000000000000E+00   0.00000000000000E+00   0.00000000000000E+00
      4.03942826220609E-17   2.90000000000000E-01   2.90000000000000E-01   0.00000000000000E+00   0.00000000000000E+00
      6.67151100661807E-10  -2.63175525405073E-14   6.67124783109266E-10   2.02884169451916E-17   1.50000000000000E-01
      1.50000000000000E-01   0.00000000000000E+00   0.00000000000000E+00   0.00000000000000E+00   0.00000000000000E+00
      0.00000000000000E+00  -5.35952003348373E-17
      1.20000000000000E-01
      0.00000000000000E+00   0.00000000000000E+00   0.00000000000000E+00   0.00000000000000E+00  -7.65276220803664E-14
     -6.59001021285489E-10  -6.59077548907570E-10  -7.16501239093701E-18   4.80000000000000E-02   4.80000000000000E-02
      0.00000000000000E+00   0.00000000000000E+00   0.00000000000000E+00   0.00000000000000E+00   0.00000000000000E+00
      4.21048637315578E-17   2.90000000000000E-01   2.90000000000000E-01   0.00000000000000E+00   0.00000000000000E+00
      6.59100586041132E-10  -2.30371335616356E-14   6.59077548907571E-10   2.02234095233951E-17   1.50000000000000E-01
      1.50000000000000E-01   0.00000000000000E+00   0.00000000000000E+00   0.00000000000000E+00   0.00000000000000E+00
      0.00000000000000E+00  -5.51632608640159E-17
      1.35000000000000E-01
      0.00000000000000E+00   0.00000000000000E+00   0.00000000000000E+00   0.00000000000000E+00  -7.78002649902786E-14
     -6.51889310452258E-10  -6.51967110717248E-10  -7.24208888165420E-18   5.40000000000000E-02   5.40000000000000E-02
      0.00000000000000E+00   0.00000000000000E+00   0.00000000000000E+00   0.00000000000000E+00   0.00000000000000E+00
      4.38151752004292E-17   2.90000000000000E-01   2.90000000000000E-01   0.00000000000000E+00   0.00000000000000E+00
      6.51987152938755E-10  -2.00422215057904E-14   6.51967110717249E-10   2.01585070092817E-17   1.50000000000000E-01
      1.50000000000000E-01   0.00000000000000E+00   0.00000000000000E+00   0.00000000000000E+00   0.00000000000000E+00
      0.00000000000000E+00  -5.67315933280567E-17
      1.50000000000000E-01
      0.00000000000000E+00   0.00000000000000E+00   0.00000000000000E+00   0.00000000000000E+00  -7.90843015612566E-14
     -6.45678642765617E-10  -6.45757727067179E-10  -7.31874296253239E-18   6.00000000000000E-02   6.00000000000000E-02
      0.00000000000000E+00   0.00000000000000E+00   0.00000000000000E+00   0.00000000000000E+00   0.00000000000000E+00
      4.55252296025862E-17   2.90000000000000E-01   2.90000000000000E-01   0.00000000000000E+00   0.00000000000000E+00
      6.45775037516721E-10  -1.73104495427188E-14   6.45757727067179E-10   2.00936984613976E-17   1.50000000000000E-01
      1.50000000000000E-01   0.00000000000000E+00   0.00000000000000E+00   0.00000000000000E+00   0.00000000000000E+00
      0.00000000000000E+00  -5.83001851014515E-17
      1.65000000000000E-01
      0.00000000000000E+00   0.00000000000000E+00   0.00000000000000E+00   0.00000000000000E+00  -8.03797701119601E-14
     -6.40335616248531E-10  -6.40415996018643E-10  -7.39498847091256E-18   6.60000000000000E-02   6.60000000000000E-02
      0.00000000000000E+00   0.00000000000000E+00   0.00000000000000E+00   0.00000000000000E+00   0.00000000000000E+00
      4.72350387330603E-17   2.90000000000000E-01   2.90000000000000E-01   0.00000000000000E+00   0.00000000000000E+00
      6.40430817005379E-10  -1.48209867357476E-14   6.40415996018643E-10   2.00289740621590E-17   1.50000000000000E-01
      1.50000000000000E-01   0.00000000000000E+00   0.00000000000000E+00   0.00000000000000E+00   0.00000000000000E+00
      0.00000000000000E+00  -5.98690243243067E-17
      1.80000000000000E-01
      0.00000000000000E+00   0.00000000000000E+00   0.00000000000000E+00   0.00000000000000E+00  -8.16866930196368E-14
     -6.35829056627220E-10  -6.35910743320240E-10  -7.47083883050012E-18   7.20000000000000E-02   7.20000000000000E-02
      0.00000000000000E+00   0.00000000000000E+00   0.00000000000000E+00   0.00000000000000E+00   0.00000000000000E+00
      4.89446136719424E-17   2.90000000000000E-01   2.90000000000000E-01   0.00000000000000E+00   0.00000000000000E+00
      6.35923297789930E-10  -1.25544696894565E-14   6.35910743320241E-10   1.99643250002623E-17   1.50000000000000E-01
      1.50000000000000E-01   0.00000000000000E+00   0.00000000000000E+00   0.00000000000000E+00   0.00000000000000E+00
      0.00000000000000E+00  -6.14380998417046E-17
      1.95000000000000E-01
      0.00000000000000E+00   0.00000000000000E+00   0.00000000000000E+00   0.00000000000000E+00  -8.30050771211596E-14
     -6.32129911757598E-10  -6.32212916834719E-10  -7.54630705883844E-18   7.80000000000000E-02   7.80000000000000E-02
      0.00000000000000E+00   0.00000000000000E+00   0.00000000000000E+00   0.00000000000000E+00   0.00000000000000E+00
      5.06539648420788E-17   2.90000000000000E-01   2.90000000000000E-01   0.00000000000000E+00   0.00000000000000E+00
      6.32223409751625E-10  -1.04929169046584E-14   6.32212916834721E-10   1.98997433655189E-17   1.50000000000000E-01
      1.50000000000000E-01   0.00000000000000E+00   0.00000000000000E+00   0.00000000000000E+00   0.00000000000000E+00
      0.00000000000000E+00  -6.30074011487592E-17
      2.10000000000000E-01
      0.00000000000000E+00   0.00000000000000E+00   0.00000000000000E+00   0.00000000000000E+00  -8.43349141375424E-14
     -6.29211152244937E-10  -6.29295487159074E-10  -7.62140577518077E-18   8.40000000000000E-02   8.40000000000000E-02
      0.00000000000000E+00   0.00000000000000E+00   0.00000000000000E+00   0.00000000000000E+00   0.00000000000000E+00
      5.23631020611818E-17   2.90000000000000E-01   2.90000000000000E-01   0.00000000000000E+00   0.00000000000000E+00
      6.29304106827106E-10  -8.61966802837426E-15   6.29295487159077E-10   1.98352220547899E-17   1.50000000000000E-01
      1.50000000000000E-01   0.00000000000000E+00   0.00000000000000E+00   0.00000000000000E+00   0.00000000000000E+00
      0.00000000000000E+00  -6.45769183407909E-17
      2.25000000000000E-01
      0.00000000000000E+00   0.00000000000000E+00   0.00000000000000E+00   0.00000000000000E+00  -8.56761811429662E-14
     -6.27047678315443E-10  -6.27133354496586E-10  -7.69614720868422E-18   9.00000000000000E-02   9.00000000000000E-02
      0.00000000000000E+00   0.00000000000000E+00   0.00000000000000E+00   0.00000000000000E+00   0.00000000000000E+00
      5.40720345889427E-17   2.90000000000000E-01   2.90000000000000E-01   0.00000000000000E+00   0.00000000000000E+00
      6.27140273755685E-10  -6.91925909886716E-15   6.27133354496586E-10   1.97707546878399E-17   1.50000000000000E-01
      1.50000000000000E-01   0.00000000000000E+00   0.00000000000000E+00   0.00000000000000E+00   0.00000000000000E+00
      0.00000000000000E+00  -6.61466420680983E-17
      2.40000000000000E-01
      0.00000000000000E+00   0.00000000000000E+00   0.00000000000000E+00   0.00000000000000E+00  -8.70288410978102E-14
     -6.25616232787196E-10  -6.25703261628293E-10  -7.77054320685845E-18   9.60000000000000E-02   9.60000000000000E-02
      0.00000000000000E+00   0.00000000000000E+00   0.00000000000000E+00   0.00000000000000E+00   0.00000000000000E+00
      5.57807711696696E-17   2.90000000000000E-01   2.90000000000000E-01   0.00000000000000E+00   0.00000000000000E+00
      6.25708638992784E-10  -5.37736449058352E-15   6.25703261628294E-10   1.97063355320542E-17   1.50000000000000E-01
      1.50000000000000E-01   0.00000000000000E+00   0.00000000000000E+00   0.00000000000000E+00   0.00000000000000E+00
      0.00000000000000E+00  -6.77165634948653E-17
      2.55000000000000E-01
      0.00000000000000E+00   0.00000000000000E+00   0.00000000000000E+00   0.00000000000000E+00  -8.83928434627550E-14
     -6.24895320191864E-10  -6.24983713035327E-10  -7.84460524420931E-18   1.02000000000000E-01   1.02000000000000E-01
      0.00000000000000E+00   0.00000000000000E+00   0.00000000000000E+00   0.00000000000000E+00   0.00000000000000E+00
      5.74893200709191E-17   2.90000000000000E-01   2.90000000000000E-01   0.00000000000000E+00   0.00000000000000E+00
      6.24987693778262E-10  -3.98074293397830E-15   6.24983713035328E-10   1.96419594350747E-17   1.50000000000000E-01
      1.50000000000000E-01   0.00000000000000E+00   0.00000000000000E+00   0.00000000000000E+00   0.00000000000000E+00
      0.00000000000000E+00  -6.92866742617846E-17
      2.70000000000000E-01
      0.00000000000000E+00   0.00000000000000E+00   0.00000000000000E+00   0.00000000000000E+00  -8.97681249077166E-14
     -6.24865132102079E-10  -6.24954900226987E-10  -7.91834443102543E-18   1.08000000000000E-01   1.08000000000000E-01
      0.00000000000000E+00   0.00000000000000E+00   0.00000000000000E+00   0.00000000000000E+00   0.00000000000000E+00
      5.91976891185364E-17   2.90000000000000E-01   2.90000000000000E-01   0.00000000000000E+00   0.00000000000000E+00
      6.24957617360812E-10  -2.71713382501098E-15   6.24954900226987E-10   1.95776217645162E-17   1.50000000000000E-01
      1.50000000000000E-01   0.00000000000000E+00   0.00000000000000E+00   0.00000000000000E+00   0.00000000000000E+00
      0.00000000000000E+00  -7.08569664520272E-17
      2.85000000000000E-01
      0.00000000000000E+00   0.00000000000000E+00   0.00000000000000E+00   0.00000000000000E+00  -9.11546101253272E-14
     -6.25507478558960E-10  -6.25598633169085E-10  -7.99177152226104E-18   1.14000000000000E-01   1.14000000000000E-01
      0.00000000000000E+00   0.00000000000000E+00   0.00000000000000E+00   0.00000000000000E+00   0.00000000000000E+00
      6.09058857284776E-17   2.90000000000000E-01   2.90000000000000E-01   0.00000000000000E+00   0.00000000000000E+00
      6.25600208393925E-10  -1.57522483958922E-15   6.25598633169085E-10   1.95133183540064E-17   1.50000000000000E-01
      1.50000000000000E-01   0.00000000000000E+00   0.00000000000000E+00   0.00000000000000E+00   0.00000000000000E+00
      0.00000000000000E+00  -7.24274325602230E-17
      3.00000000000000E-01
      0.00000000000000E+00   0.00000000000000E+00   0.00000000000000E+00   0.00000000000000E+00  -9.25522127541311E-14
     -6.26805725760630E-10  -6.26898277973384E-10  -8.06489692647505E-18   1.20000000000000E-01   1.20000000000000E-01
      0.00000000000000E+00   0.00000000000000E+00   0.00000000000000E+00   0.00000000000000E+00   0.00000000000000E+00
      6.26139169357447E-17   2.90000000000000E-01   2.90000000000000E-01   0.00000000000000E+00   0.00000000000000E+00
      6.26898822534897E-10  -5.44561512475912E-16   6.26898277973385E-10   1.94490454548831E-17   1.50000000000000E-01
      1.50000000000000E-01   0.00000000000000E+00   0.00000000000000E+00   0.00000000000000E+00   0.00000000000000E+00
      0.00000000000000E+00  -7.39980654641528E-17
      3.15000000000000E-01
      0.00000000000000E+00   0.00000000000000E+00   0.00000000000000E+00   0.00000000000000E+00  -9.39608364117274E-14
     -6.28744739955360E-10  -6.28838700791772E-10  -8.13773071479043E-18   1.26000000000000E-01   1.26000000000000E-01
      0.00000000000000E+00   0.00000000000000E+00   0.00000000000000E+00   0.00000000000000E+00   0.00000000000000E+00
      6.43217894207301E-17   2.90000000000000E-01   2.90000000000000E-01   0.00000000000000E+00   0.00000000000000E+00
      6.28838316296034E-10   3.84495736591746E-16   6.28838700791771E-10   1.93847996929441E-17   1.50000000000000E-01
      1.50000000000000E-01   0.00000000000000E+00   0.00000000000000E+00   0.00000000000000E+00   0.00000000000000E+00
      0.00000000000000E+00  -7.55688583988837E-17
      3.30000000000000E-01
      0.00000000000000E+00   0.00000000000000E+00   0.00000000000000E+00   0.00000000000000E+00  -9.53803758330912E-14
     -6.31310837671000E-10  -6.31406218046833E-10  -8.21028262984311E-18   1.32000000000000E-01   1.32000000000000E-01
      0.00000000000000E+00   0.00000000000000E+00   0.00000000000000E+00   0.00000000000000E+00   0.00000000000000E+00
      6.60295095332344E-17   2.90000000000000E-01   2.90000000000000E-01   0.00000000000000E+00   0.00000000000000E+00
      6.31404997216349E-10   1.22083048423697E-15   6.31406218046833E-10   1.93205780297181E-17   1.50000000000000E-01
      1.50000000000000E-01   0.00000000000000E+00   0.00000000000000E+00   0.00000000000000E+00   0.00000000000000E+00
      0.00000000000000E+00  -7.71398049331094E-17
      3.45000000000000E-01
      0.00000000000000E+00   0.00000000000000E+00   0.00000000000000E+00   0.00000000000000E+00  -9.68107181043985E-14
     -6.34491742343565E-10  -6.34588553061669E-10  -8.28256209469329E-18   1.38000000000000E-01   1.38000000000000E-01
      0.00000000000000E+00   0.00000000000000E+00   0.00000000000000E+00   0.00000000000000E+00   0.00000000000000E+00
      6.77370833143943E-17   2.90000000000000E-01   2.90000000000000E-01   0.00000000000000E+00   0.00000000000000E+00
      6.34586580442827E-10   1.97261884174682E-15   6.34588553061669E-10   1.92563777277758E-17   1.50000000000000E-01
      1.50000000000000E-01   0.00000000000000E+00   0.00000000000000E+00   0.00000000000000E+00   0.00000000000000E+00
      0.00000000000000E+00  -7.87108989474768E-17
      3.60000000000000E-01
      0.00000000000000E+00   0.00000000000000E+00   0.00000000000000E+00   0.00000000000000E+00  -9.82517439781090E-14
     -6.38276547474253E-10  -6.38374799218231E-10  -8.35457822167548E-18   1.44000000000000E-01   1.44000000000000E-01
      0.00000000000000E+00   0.00000000000000E+00   0.00000000000000E+00   0.00000000000000E+00   0.00000000000000E+00
      6.94445165167297E-17   2.90000000000000E-01   2.90000000000000E-01   0.00000000000000E+00   0.00000000000000E+00
      6.38372151832517E-10   2.64738571353525E-15   6.38374799218231E-10   1.91921963196546E-17   1.50000000000000E-01
      1.50000000000000E-01   0.00000000000000E+00   0.00000000000000E+00   0.00000000000000E+00   0.00000000000000E+00
      0.00000000000000E+00  -8.02821346147089E-17
      3.75000000000000E-01
      0.00000000000000E+00   0.00000000000000E+00   0.00000000000000E+00   0.00000000000000E+00  -9.97033292510317E-14
     -6.42655686433558E-10  -6.42755389762808E-10  -8.42633982116711E-18   1.50000000000000E-01   1.50000000000000E-01
      0.00000000000000E+00   0.00000000000000E+00   0.00000000000000E+00   0.00000000000000E+00   0.00000000000000E+00
      7.11518146225002E-17   2.90000000000000E-01   2.90000000000000E-01   0.00000000000000E+00   0.00000000000000E+00
      6.42752137710679E-10   3.25205213004232E-15   6.42755389762809E-10   1.91280315800160E-17   1.50000000000000E-01
      1.50000000000000E-01   0.00000000000000E+00   0.00000000000000E+00   0.00000000000000E+00   0.00000000000000E+00
      0.00000000000000E+00  -8.18535063813491E-17
      3.90000000000000E-01
      0.00000000000000E+00   0.00000000000000E+00   0.00000000000000E+00   0.00000000000000E+00  -1.01165346183741E-13
     -6.47620909057348E-10  -6.47722074403531E-10  -8.49785541025796E-18   1.56000000000000E-01   1.56000000000000E-01
      0.00000000000000E+00   0.00000000000000E+00   0.00000000000000E+00   0.00000000000000E+00   0.00000000000000E+00
      7.28589828605366E-17   2.90000000000000E-01   2.90000000000000E-01   0.00000000000000E+00   0.00000000000000E+00
      6.47718281445927E-10   3.79295760505502E-15   6.47722074403532E-10   1.90638815006930E-17   1.50000000000000E-01
      1.50000000000000E-01   0.00000000000000E+00   0.00000000000000E+00   0.00000000000000E+00   0.00000000000000E+00
      0.00000000000000E+00  -8.34250089509717E-17
      4.05000000000000E-01
      0.00000000000000E+00   0.00000000000000E+00   0.00000000000000E+00   0.00000000000000E+00  -1.02637664937196E-13
     -6.53165265299348E-10  -6.53267902964286E-10  -8.56913322130550E-18   1.62000000000000E-01   1.62000000000000E-01
      0.00000000000000E+00   0.00000000000000E+00   0.00000000000000E+00   0.00000000000000E+00   0.00000000000000E+00
      7.45660262217007E-17   2.90000000000000E-01   2.90000000000000E-01   0.00000000000000E+00   0.00000000000000E+00
      6.53263627031231E-10   4.27593305399213E-15   6.53267902964285E-10   1.89997442683250E-17   1.50000000000000E-01
      1.50000000000000E-01   0.00000000000000E+00   0.00000000000000E+00   0.00000000000000E+00   0.00000000000000E+00
      0.00000000000000E+00  -8.49966372687202E-17
      4.20000000000000E-01
      0.00000000000000E+00   0.00000000000000E+00   0.00000000000000E+00   0.00000000000000E+00  -1.04120155000771E-13
     -6.59283096055664E-10  -6.59387216210665E-10  -8.64018121036302E-18   1.68000000000000E-01   1.68000000000000E-01
      0.00000000000000E+00   0.00000000000000E+00   0.00000000000000E+00   0.00000000000000E+00   0.00000000000000E+00
      7.62729494731040E-17   2.90000000000000E-01   2.90000000000000E-01   0.00000000000000E+00   0.00000000000000E+00
      6.59382509890152E-10   4.70632051212474E-15   6.59387216210664E-10   1.89356182443061E-17   1.50000000000000E-01
      1.50000000000000E-01   0.00000000000000E+00   0.00000000000000E+00   0.00000000000000E+00   0.00000000000000E+00
      0.00000000000000E+00  -8.65683865070471E-17
      4.35000000000000E-01
      0.00000000000000E+00   0.00000000000000E+00   0.00000000000000E+00   0.00000000000000E+00  -1.05612686585210E-13
     -6.65970031479210E-10  -6.66075644165796E-10  -8.71100706546990E-18   1.74000000000000E-01   1.74000000000000E-01
      0.00000000000000E+00   0.00000000000000E+00   0.00000000000000E+00   0.00000000000000E+00   0.00000000000000E+00
      7.79797571712092E-17   2.90000000000000E-01   2.90000000000000E-01   0.00000000000000E+00   0.00000000000000E+00
      6.66070555161441E-10   5.08900435410669E-15   6.66075644165795E-10   1.88715019468045E-17   1.50000000000000E-01
      1.50000000000000E-01   0.00000000000000E+00   0.00000000000000E+00   0.00000000000000E+00   0.00000000000000E+00
      0.00000000000000E+00  -8.81402520525439E-17
      4.50000000000000E-01
      0.00000000000000E+00   0.00000000000000E+00   0.00000000000000E+00   0.00000000000000E+00  -1.07115131954298E-13
     -6.73222997081905E-10  -6.73330112213860E-10  -8.78161821479483E-18   1.80000000000000E-01   1.80000000000000E-01
      0.00000000000000E+00   0.00000000000000E+00   0.00000000000000E+00   0.00000000000000E+00   0.00000000000000E+00
      7.96864536739185E-17   2.90000000000000E-01   2.90000000000000E-01   0.00000000000000E+00   0.00000000000000E+00
      6.73324683752835E-10   5.42846102571702E-15   6.73330112213860E-10   1.88073940346358E-17   1.50000000000000E-01
      1.50000000000000E-01   0.00000000000000E+00   0.00000000000000E+00   0.00000000000000E+00   0.00000000000000E+00
      0.00000000000000E+00  -8.97122294937595E-17
      4.65000000000000E-01
      0.00000000000000E+00   0.00000000000000E+00   0.00000000000000E+00   0.00000000000000E+00  -1.08627366670115E-13
     -6.81040227909716E-10  -6.81148855276386E-10  -8.85202183462419E-18   1.86000000000000E-01   1.86000000000000E-01
      0.00000000000000E+00   0.00000000000000E+00   0.00000000000000E+00   0.00000000000000E+00   0.00000000000000E+00
      8.13930431517469E-17   2.90000000000000E-01   2.90000000000000E-01   0.00000000000000E+00   0.00000000000000E+00
      6.81143126497660E-10   5.72877872572552E-15   6.81148855276386E-10   1.87432932927954E-17   1.50000000000000E-01
      1.50000000000000E-01   0.00000000000000E+00   0.00000000000000E+00   0.00000000000000E+00   0.00000000000000E+00
      0.00000000000000E+00  -9.12843146099181E-17
      4.80000000000000E-01
      0.00000000000000E+00   0.00000000000000E+00   0.00000000000000E+00   0.00000000000000E+00  -1.10149270728763E-13
     -6.89421291219353E-10  -6.89531440490082E-10  -8.92222485718966E-18   1.92000000000000E-01   1.92000000000000E-01
      0.00000000000000E+00   0.00000000000000E+00   0.00000000000000E+00   0.00000000000000E+00   0.00000000000000E+00
      8.30995295981658E-17   2.90000000000000E-01   2.90000000000000E-01   0.00000000000000E+00   0.00000000000000E+00
      6.89525446796699E-10   5.99369338361262E-15   6.89531440490082E-10   1.86791986194759E-17   1.50000000000000E-01
      1.50000000000000E-01   0.00000000000000E+00   0.00000000000000E+00   0.00000000000000E+00   0.00000000000000E+00
      0.00000000000000E+00  -9.28565033604521E-17
      4.95000000000000E-01
      0.00000000000000E+00   0.00000000000000E+00   0.00000000000000E+00   0.00000000000000E+00  -1.11680729566136E-13
     -6.98367118062840E-10  -6.98478798792407E-10  -8.99223397832975E-18   1.98000000000000E-01   1.98000000000000E-01
      0.00000000000000E+00   0.00000000000000E+00   0.00000000000000E+00   0.00000000000000E+00   0.00000000000000E+00
      8.48059168391947E-17   2.90000000000000E-01   2.90000000000000E-01   0.00000000000000E+00   0.00000000000000E+00
      6.98472572184237E-10   6.22660816933386E-15   6.98478798792406E-10   1.86151090144151E-17   1.50000000000000E-01
      1.50000000000000E-01   0.00000000000000E+00   0.00000000000000E+00   0.00000000000000E+00   0.00000000000000E+00
      0.00000000000000E+00  -9.44287918752801E-17
      5.10000000000000E-01
      0.00000000000000E+00   0.00000000000000E+00   0.00000000000000E+00   0.00000000000000E+00  -1.13221634916518E-13
     -7.07880044316350E-10  -7.07993265951266E-10  -9.06205566498175E-18   2.04000000000000E-01   2.04000000000000E-01
      0.00000000000000E+00   0.00000000000000E+00   0.00000000000000E+00   0.00000000000000E+00   0.00000000000000E+00
      8.65122085423082E-17   2.90000000000000E-01   2.90000000000000E-01   0.00000000000000E+00   0.00000000000000E+00
      7.07986835322678E-10   6.43062858785047E-15   7.07993265951266E-10   1.85510235684354E-17   1.50000000000000E-01
      1.50000000000000E-01   0.00000000000000E+00   0.00000000000000E+00   0.00000000000000E+00   0.00000000000000E+00
      0.00000000000000E+00  -9.60011764457618E-17
      5.25000000000000E-01
      0.00000000000000E+00   0.00000000000000E+00   0.00000000000000E+00   0.00000000000000E+00  -1.14771885510606E-13
     -7.17963861703864E-10  -7.18078633589375E-10  -9.13169616250075E-18   2.10000000000000E-01   2.10000000000000E-01
      0.00000000000000E+00   0.00000000000000E+00   0.00000000000000E+00   0.00000000000000E+00   0.00000000000000E+00
      8.82184082247227E-17   2.90000000000000E-01   2.90000000000000E-01   0.00000000000000E+00   0.00000000000000E+00
      7.18072025006551E-10   6.60858282400256E-15   7.18078633589375E-10   1.84869414540498E-17   1.50000000000000E-01
      1.50000000000000E-01   0.00000000000000E+00   0.00000000000000E+00   0.00000000000000E+00   0.00000000000000E+00
      0.00000000000000E+00  -9.75736535162717E-17
      5.40000000000000E-01
      0.00000000000000E+00   0.00000000000000E+00   0.00000000000000E+00   0.00000000000000E+00  -1.16331387603548E-13
     -7.28623879498512E-10  -7.28740210886116E-10  -9.20116150180387E-18   2.16000000000000E-01   2.16000000000000E-01
      0.00000000000000E+00   0.00000000000000E+00   0.00000000000000E+00   0.00000000000000E+00   0.00000000000000E+00
      8.99245192611169E-17   2.90000000000000E-01   2.90000000000000E-01   0.00000000000000E+00   0.00000000000000E+00
      7.28733447845664E-10   6.76304045160054E-15   7.28740210886115E-10   1.84228619170237E-17   1.50000000000000E-01
      1.50000000000000E-01   0.00000000000000E+00   0.00000000000000E+00   0.00000000000000E+00   0.00000000000000E+00
      0.00000000000000E+00  -9.91462196763366E-17
      5.55000000000000E-01
      0.00000000000000E+00   0.00000000000000E+00   0.00000000000000E+00   0.00000000000000E+00  -1.17900055327857E-13