DF-ISE text

Info {
  version   = 1.0
  type      = xyplot
  datasets  = [
    "time"
    "source OuterVoltage" "source InnerVoltage" "source QuasiFermiPotential" "source DisplacementCurrent" "source eCurrent"
    "source hCurrent" "source TotalCurrent" "source Charge" "topGate OuterVoltage" "topGate InnerVoltage"
    "topGate QuasiFermiPotential" "topGate DisplacementCurrent" "topGate eCurrent" "topGate hCurrent" "topGate TotalCurrent"
    "topGate Charge" "drain OuterVoltage" "drain InnerVoltage" "drain QuasiFermiPotential" "drain DisplacementCurrent"
    "drain eCurrent" "drain hCurrent" "drain TotalCurrent" "drain Charge" "bottomGate OuterVoltage"
    "bottomGate InnerVoltage" "bottomGate QuasiFermiPotential" "bottomGate DisplacementCurrent" "bottomGate eCurrent" "bottomGate hCurrent"
    "bottomGate TotalCurrent" "bottomGate Charge" ]
  functions = [
    Time
    OuterVoltage InnerVoltage QuasiFermiPotential DisplacementCurrent eCurrent
    hCurrent TotalCurrent Charge OuterVoltage InnerVoltage
    QuasiFermiPotential DisplacementCurrent eCurrent hCurrent TotalCurrent
    Charge OuterVoltage InnerVoltage QuasiFermiPotential DisplacementCurrent
    eCurrent hCurrent TotalCurrent Charge OuterVoltage
    InnerVoltage QuasiFermiPotential DisplacementCurrent eCurrent hCurrent
    TotalCurrent Charge ]
}

Data {
      1.50000000000000E-02
      0.00000000000000E+00   0.00000000000000E+00   0.00000000000000E+00   0.00000000000000E+00  -1.73973823703138E-13
     -4.25157993447255E-12  -4.42555375817569E-12  -1.14467095746048E-17   6.00000000000000E-03   6.00000000000000E-03
      0.00000000000000E+00   0.00000000000000E+00   0.00000000000000E+00   0.00000000000000E+00   0.00000000000000E+00
     -1.67450334883419E-17   2.50000000000000E-01   2.50000000000000E-01   0.00000000000000E+00   0.00000000000000E+00
      4.41927987495729E-12   6.27388321840073E-15   4.42555375817569E-12   1.54286358296019E-17   6.00000000000000E-02
      6.00000000000000E-02   0.00000000000000E+00   0.00000000000000E+00   0.00000000000000E+00   0.00000000000000E+00
      0.00000000000000E+00   1.27631072333448E-17
      3.00000000000000E-02
      0.00000000000000E+00   0.00000000000000E+00   0.00000000000000E+00   0.00000000000000E+00  -1.75827147403554E-13
     -3.74989647884321E-12  -3.92572362624676E-12  -1.15126445178955E-17   1.20000000000000E-02   1.20000000000000E-02
      0.00000000000000E+00   0.00000000000000E+00   0.00000000000000E+00   0.00000000000000E+00   0.00000000000000E+00
     -1.50405580871336E-17   2.50000000000000E-01   2.50000000000000E-01   0.00000000000000E+00   0.00000000000000E+00
      3.91949338143058E-12   6.23024481618320E-15   3.92572362624676E-12   1.53643022917783E-17   6.00000000000000E-02
      6.00000000000000E-02   0.00000000000000E+00   0.00000000000000E+00   0.00000000000000E+00   0.00000000000000E+00
      0.00000000000000E+00   1.11889003132508E-17
      4.50000000000000E-02
      0.00000000000000E+00   0.00000000000000E+00   0.00000000000000E+00   0.00000000000000E+00  -1.77686645579320E-13
     -3.31490772799441E-12  -3.49259437357373E-12  -1.15785240573153E-17   1.80000000000000E-02   1.80000000000000E-02
      0.00000000000000E+00   0.00000000000000E+00   0.00000000000000E+00   0.00000000000000E+00   0.00000000000000E+00
     -1.33361050331325E-17   2.50000000000000E-01   2.50000000000000E-01   0.00000000000000E+00   0.00000000000000E+00
      3.48640779366045E-12   6.18657991327674E-15   3.49259437357373E-12   1.52999580380530E-17   6.00000000000000E-02
      6.00000000000000E-02   0.00000000000000E+00   0.00000000000000E+00   0.00000000000000E+00   0.00000000000000E+00
      0.00000000000000E+00   9.61467105239478E-18
      6.00000000000000E-02
      0.00000000000000E+00   0.00000000000000E+00   0.00000000000000E+00   0.00000000000000E+00  -1.79552220047848E-13
     -2.93852417180112E-12  -3.11807639184896E-12  -1.16443498761769E-17   2.40000000000000E-02   2.40000000000000E-02
      0.00000000000000E+00   0.00000000000000E+00   0.00000000000000E+00   0.00000000000000E+00   0.00000000000000E+00
     -1.16316733446746E-17   2.50000000000000E-01   2.50000000000000E-01   0.00000000000000E+00   0.00000000000000E+00
      3.11193349423850E-12   6.14289761046734E-15   3.11807639184896E-12   1.52356027893034E-17   6.00000000000000E-02
      6.00000000000000E-02   0.00000000000000E+00   0.00000000000000E+00   0.00000000000000E+00   0.00000000000000E+00
      0.00000000000000E+00   8.04042043154806E-18
      7.50000000000000E-02
      0.00000000000000E+00   0.00000000000000E+00   0.00000000000000E+00   0.00000000000000E+00  -1.81423773874638E-13
     -2.61356799633766E-12  -2.79499177021230E-12  -1.17101236008625E-17   3.00000000000000E-02   3.00000000000000E-02
      0.00000000000000E+00   0.00000000000000E+00   0.00000000000000E+00   0.00000000000000E+00   0.00000000000000E+00
     -9.92726206549687E-18   2.50000000000000E-01   2.50000000000000E-01   0.00000000000000E+00   0.00000000000000E+00
      2.78889256422892E-12   6.09920598337852E-15   2.79499177021230E-12   1.51712362601615E-17   6.00000000000000E-02
      6.00000000000000E-02   0.00000000000000E+00   0.00000000000000E+00   0.00000000000000E+00   0.00000000000000E+00
      0.00000000000000E+00   6.46614940619783E-18
      9.00000000000000E-02
      0.00000000000000E+00   0.00000000000000E+00   0.00000000000000E+00   0.00000000000000E+00  -1.83301211388447E-13
     -2.33368860002243E-12  -2.51698981141088E-12  -1.17758468028675E-17   3.60000000000000E-02   3.60000000000000E-02
      0.00000000000000E+00   0.00000000000000E+00   0.00000000000000E+00   0.00000000000000E+00   0.00000000000000E+00
     -8.22287026349928E-18   2.50000000000000E-01   2.50000000000000E-01   0.00000000000000E+00   0.00000000000000E+00
      2.51093429905673E-12   6.05551235414992E-15   2.51698981141088E-12   1.51068581585965E-17   6.00000000000000E-02
      6.00000000000000E-02   0.00000000000000E+00   0.00000000000000E+00   0.00000000000000E+00   0.00000000000000E+00
      0.00000000000000E+00   4.89185890777021E-18
      1.05000000000000E-01
      0.00000000000000E+00   0.00000000000000E+00   0.00000000000000E+00   0.00000000000000E+00  -1.85184438193266E-13
     -2.09328475276515E-12  -2.27846919095842E-12  -1.18415210007702E-17   4.20000000000000E-02   4.20000000000000E-02
      0.00000000000000E+00   0.00000000000000E+00   0.00000000000000E+00   0.00000000000000E+00   0.00000000000000E+00
     -6.51849702954933E-18   2.50000000000000E-01   2.50000000000000E-01   0.00000000000000E+00   0.00000000000000E+00
      2.27245736768891E-12   6.01182326950936E-15   2.27846919095842E-12   1.50424681855068E-17   6.00000000000000E-02
      6.00000000000000E-02   0.00000000000000E+00   0.00000000000000E+00   0.00000000000000E+00   0.00000000000000E+00
      0.00000000000000E+00   3.31754984481279E-18
      1.20000000000000E-01
      0.00000000000000E+00   0.00000000000000E+00   0.00000000000000E+00   0.00000000000000E+00  -1.87073361177457E-13
     -1.88743320962055E-12  -2.07450657079800E-12  -1.19071476621299E-17   4.80000000000000E-02   4.80000000000000E-02
      0.00000000000000E+00   0.00000000000000E+00   0.00000000000000E+00   0.00000000000000E+00   0.00000000000000E+00
     -4.81414147632650E-18   2.50000000000000E-01   2.50000000000000E-01   0.00000000000000E+00   0.00000000000000E+00
      2.06853842616551E-12   5.96814463249850E-15   2.07450657079800E-12   1.49780660343178E-17   6.00000000000000E-02
      6.00000000000000E-02   0.00000000000000E+00   0.00000000000000E+00   0.00000000000000E+00   0.00000000000000E+00
      0.00000000000000E+00   1.74322310413861E-18
      1.35000000000000E-01
      0.00000000000000E+00   0.00000000000000E+00   0.00000000000000E+00   0.00000000000000E+00  -1.88967888520423E-13
     -1.71182358907474E-12  -1.90079147759516E-12  -1.19727282053153E-17   5.40000000000000E-02   5.40000000000000E-02
      0.00000000000000E+00   0.00000000000000E+00   0.00000000000000E+00   0.00000000000000E+00   0.00000000000000E+00
     -3.10980273720420E-18   2.50000000000000E-01   2.50000000000000E-01   0.00000000000000E+00   0.00000000000000E+00
      1.89486699579893E-12   5.92448179623260E-15   1.90079147759516E-12   1.49136513905853E-17   6.00000000000000E-02
      6.00000000000000E-02   0.00000000000000E+00   0.00000000000000E+00   0.00000000000000E+00   0.00000000000000E+00
      0.00000000000000E+00   1.68879551934124E-19
      1.50000000000000E-01
      0.00000000000000E+00   0.00000000000000E+00   0.00000000000000E+00   0.00000000000000E+00  -1.90867929697071E-13
     -1.56269932773648E-12  -1.75356725743355E-12  -1.20382640012666E-17   6.00000000000000E-02   6.00000000000000E-02
      0.00000000000000E+00   0.00000000000000E+00   0.00000000000000E+00   0.00000000000000E+00   0.00000000000000E+00
     -1.40547996516689E-18   2.50000000000000E-01   2.50000000000000E-01   0.00000000000000E+00   0.00000000000000E+00
      1.74768641782575E-12   5.88083960780217E-15   1.75356725743355E-12   1.48492239316001E-17   6.00000000000000E-02
      6.00000000000000E-02   0.00000000000000E+00   0.00000000000000E+00   0.00000000000000E+00   0.00000000000000E+00
      0.00000000000000E+00  -1.40547996516662E-18
      1.65000000000000E-01
      0.00000000000000E+00   0.00000000000000E+00   0.00000000000000E+00   0.00000000000000E+00  -1.92773395480327E-13
     -1.43680452695086E-12  -1.62957792243118E-12  -1.21037563751930E-17   6.60000000000000E-02   6.60000000000000E-02
      0.00000000000000E+00   0.00000000000000E+00   0.00000000000000E+00   0.00000000000000E+00   0.00000000000000E+00
      2.98827668239606E-19   2.50000000000000E-01   2.50000000000000E-01   0.00000000000000E+00   0.00000000000000E+00
      1.62374069995557E-12   5.83722247561576E-15   1.62957792243118E-12   1.47847833259934E-17   6.00000000000000E-02
      6.00000000000000E-02   0.00000000000000E+00   0.00000000000000E+00   0.00000000000000E+00   0.00000000000000E+00
      0.00000000000000E+00  -2.97985461904003E-18
      1.80000000000000E-01
      0.00000000000000E+00   0.00000000000000E+00   0.00000000000000E+00   0.00000000000000E+00  -1.94684197941910E-13
     -1.33133651255174E-12  -1.52602071049365E-12  -1.21692066082077E-17   7.20000000000000E-02   7.20000000000000E-02
      0.00000000000000E+00   0.00000000000000E+00   0.00000000000000E+00   0.00000000000000E+00   0.00000000000000E+00
      2.00312097392698E-18   2.50000000000000E-01   2.50000000000000E-01   0.00000000000000E+00   0.00000000000000E+00
      1.52022707607383E-12   5.79363441981812E-15   1.52602071049365E-12   1.47203292333415E-17   6.00000000000000E-02
      6.00000000000000E-02   0.00000000000000E+00   0.00000000000000E+00   0.00000000000000E+00   0.00000000000000E+00
      0.00000000000000E+00  -4.55424359906083E-18
      1.95000000000000E-01
      0.00000000000000E+00   0.00000000000000E+00   0.00000000000000E+00   0.00000000000000E+00  -1.96600250451598E-13
     -1.24390393690252E-12  -1.44050418735412E-12  -1.22346159389030E-17   7.80000000000000E-02   7.80000000000000E-02
      0.00000000000000E+00   0.00000000000000E+00   0.00000000000000E+00   0.00000000000000E+00   0.00000000000000E+00
      3.70740074625415E-18   2.50000000000000E-01   2.50000000000000E-01   0.00000000000000E+00   0.00000000000000E+00
      1.43475410824333E-12   5.75007911078680E-15   1.44050418735412E-12   1.46558613037671E-17   6.00000000000000E-02
      6.00000000000000E-02   0.00000000000000E+00   0.00000000000000E+00   0.00000000000000E+00   0.00000000000000E+00
      0.00000000000000E+00  -6.12864611111819E-18
      2.10000000000000E-01
      0.00000000000000E+00   0.00000000000000E+00   0.00000000000000E+00   0.00000000000000E+00  -1.98521467675091E-13
     -1.17249026225052E-12  -1.37101172992561E-12  -1.22999855648679E-17   8.40000000000000E-02   8.40000000000000E-02
      0.00000000000000E+00   0.00000000000000E+00   0.00000000000000E+00   0.00000000000000E+00   0.00000000000000E+00
      5.41166776398975E-18   2.50000000000000E-01   2.50000000000000E-01   0.00000000000000E+00   0.00000000000000E+00
      1.36530517000597E-12   5.70655991963794E-15   1.37101172992561E-12   1.45913791775365E-17   6.00000000000000E-02
      6.00000000000000E-02   0.00000000000000E+00   0.00000000000000E+00   0.00000000000000E+00   0.00000000000000E+00
      0.00000000000000E+00  -7.70306137665839E-18
      2.25000000000000E-01
      0.00000000000000E+00   0.00000000000000E+00   0.00000000000000E+00   0.00000000000000E+00  -2.00447765570637E-13
     -1.11542247606327E-12  -1.31587024163391E-12  -1.23653166441491E-17   9.00000000000000E-02   9.00000000000000E-02
      0.00000000000000E+00   0.00000000000000E+00   0.00000000000000E+00   0.00000000000000E+00   0.00000000000000E+00
      7.11592279124933E-18   2.50000000000000E-01   2.50000000000000E-01   0.00000000000000E+00   0.00000000000000E+00
      1.31020716167490E-12   5.66307995900431E-15   1.31587024163391E-12   1.45268824846520E-17   6.00000000000000E-02
      6.00000000000000E-02   0.00000000000000E+00   0.00000000000000E+00   0.00000000000000E+00   0.00000000000000E+00
      0.00000000000000E+00  -9.27748863175221E-18
      2.40000000000000E-01
      0.00000000000000E+00   0.00000000000000E+00   0.00000000000000E+00   0.00000000000000E+00  -2.02379061384549E-13
     -1.07134490236323E-12  -1.27372396374778E-12  -1.24306102966592E-17   9.60000000000000E-02   9.60000000000000E-02
      0.00000000000000E+00   0.00000000000000E+00   0.00000000000000E+00   0.00000000000000E+00   0.00000000000000E+00
      8.82016657840869E-18   2.50000000000000E-01   2.50000000000000E-01   0.00000000000000E+00   0.00000000000000E+00
      1.26810432166240E-12   5.61964208537846E-15   1.27372396374778E-12   1.44623708444361E-17   6.00000000000000E-02
      6.00000000000000E-02   0.00000000000000E+00   0.00000000000000E+00   0.00000000000000E+00   0.00000000000000E+00
      0.00000000000000E+00  -1.08519271261855E-17
      2.55000000000000E-01
      0.00000000000000E+00   0.00000000000000E+00   0.00000000000000E+00   0.00000000000000E+00  -2.04315273645653E-13
     -1.03919798802082E-12  -1.24351326166647E-12  -1.24958676055324E-17   1.02000000000000E-01   1.02000000000000E-01
      0.00000000000000E+00   0.00000000000000E+00   0.00000000000000E+00   0.00000000000000E+00   0.00000000000000E+00
      1.05243998629950E-17   2.50000000000000E-01   2.50000000000000E-01   0.00000000000000E+00   0.00000000000000E+00
      1.23793701272008E-12   5.57624894638592E-15   1.24351326166647E-12   1.43978438651088E-17   6.00000000000000E-02
      6.00000000000000E-02   0.00000000000000E+00   0.00000000000000E+00   0.00000000000000E+00   0.00000000000000E+00
      0.00000000000000E+00  -1.24263761225715E-17
      2.70000000000000E-01
      0.00000000000000E+00   0.00000000000000E+00   0.00000000000000E+00   0.00000000000000E+00  -2.06256322158843E-13
     -1.01820195891550E-12  -1.22445828107434E-12  -1.25610896184297E-17   1.08000000000000E-01   1.08000000000000E-01
      0.00000000000000E+00   0.00000000000000E+00   0.00000000000000E+00   0.00000000000000E+00   0.00000000000000E+00
      1.22286233705577E-17   2.50000000000000E-01   2.50000000000000E-01   0.00000000000000E+00   0.00000000000000E+00
      1.21892537806409E-12   5.53290301025244E-15   1.22445828107434E-12   1.43333011433551E-17   6.00000000000000E-02
      6.00000000000000E-02   0.00000000000000E+00   0.00000000000000E+00   0.00000000000000E+00   0.00000000000000E+00
      0.00000000000000E+00  -1.40008348954831E-17
      2.85000000000000E-01
      0.00000000000000E+00   0.00000000000000E+00   0.00000000000000E+00   0.00000000000000E+00  -2.08202127997659E-13
     -1.00784525804524E-12  -1.21604738604289E-12  -1.26262773487978E-17   1.14000000000000E-01   1.14000000000000E-01
      0.00000000000000E+00   0.00000000000000E+00   0.00000000000000E+00   0.00000000000000E+00   0.00000000000000E+00
      1.39328378155197E-17   2.50000000000000E-01   2.50000000000000E-01   0.00000000000000E+00   0.00000000000000E+00
      1.21055777948672E-12   5.48960655617763E-15   1.21604738604289E-12   1.42687422638823E-17   6.00000000000000E-02
      6.00000000000000E-02   0.00000000000000E+00   0.00000000000000E+00   0.00000000000000E+00   0.00000000000000E+00
      0.00000000000000E+00  -1.55753027306042E-17
      3.00000000000000E-01
      0.00000000000000E+00   0.00000000000000E+00   0.00000000000000E+00   0.00000000000000E+00  -2.10152613496098E-13
     -1.00787769569172E-12  -1.21803030918782E-12  -1.26914317770792E-17   1.20000000000000E-01   1.20000000000000E-01
      0.00000000000000E+00   0.00000000000000E+00   0.00000000000000E+00   0.00000000000000E+00   0.00000000000000E+00
      1.56370439020117E-17   2.50000000000000E-01   2.50000000000000E-01   0.00000000000000E+00   0.00000000000000E+00
      1.21258394747481E-12   5.44636171300797E-15   1.21803030918782E-12   1.42041667989656E-17   6.00000000000000E-02
      6.00000000000000E-02   0.00000000000000E+00   0.00000000000000E+00   0.00000000000000E+00   0.00000000000000E+00
      0.00000000000000E+00  -1.71497789238981E-17
      3.15000000000000E-01
      0.00000000000000E+00   0.00000000000000E+00   0.00000000000000E+00   0.00000000000000E+00  -2.12107702239531E-13
     -1.01830826003590E-12  -1.23041596227544E-12  -1.27565538518795E-17   1.26000000000000E-01   1.26000000000000E-01
      0.00000000000000E+00   0.00000000000000E+00   0.00000000000000E+00   0.00000000000000E+00   0.00000000000000E+00
      1.73412423246895E-17   2.50000000000000E-01   2.50000000000000E-01   0.00000000000000E+00   0.00000000000000E+00
      1.22501279180783E-12   5.40317046761014E-15   1.23041596227544E-12   1.41395743079817E-17   6.00000000000000E-02
      6.00000000000000E-02   0.00000000000000E+00   0.00000000000000E+00   0.00000000000000E+00   0.00000000000000E+00
      0.00000000000000E+00  -1.87242627807917E-17
      3.30000000000000E-01
      0.00000000000000E+00   0.00000000000000E+00   0.00000000000000E+00   0.00000000000000E+00  -2.14067319054897E-13
     -1.03940755545316E-12  -1.25347487450805E-12  -1.28216444910907E-17   1.32000000000000E-01   1.32000000000000E-01
      0.00000000000000E+00   0.00000000000000E+00   0.00000000000000E+00   0.00000000000000E+00   0.00000000000000E+00
      1.90454337695370E-17   2.50000000000000E-01   2.50000000000000E-01   0.00000000000000E+00   0.00000000000000E+00
      1.24811483983619E-12   5.36003467185888E-15   1.25347487450805E-12   1.40749643369288E-17   6.00000000000000E-02
      6.00000000000000E-02   0.00000000000000E+00   0.00000000000000E+00   0.00000000000000E+00   0.00000000000000E+00
      0.00000000000000E+00  -2.02987536153751E-17
      3.45000000000000E-01
      0.00000000000000E+00   0.00000000000000E+00   0.00000000000000E+00   0.00000000000000E+00  -2.16031390000028E-13
     -1.07171485443158E-12  -1.28774624443161E-12  -1.28867045829732E-17   1.38000000000000E-01   1.38000000000000E-01
      0.00000000000000E+00   0.00000000000000E+00   0.00000000000000E+00   0.00000000000000E+00   0.00000000000000E+00
      2.07496189146554E-17   2.50000000000000E-01   2.50000000000000E-01   0.00000000000000E+00   0.00000000000000E+00
      1.28242928838253E-12   5.31695604907722E-15   1.28774624443161E-12   1.40103364179314E-17   6.00000000000000E-02
      6.00000000000000E-02   0.00000000000000E+00   0.00000000000000E+00   0.00000000000000E+00   0.00000000000000E+00
      0.00000000000000E+00  -2.18732507496136E-17
      3.60000000000000E-01
      0.00000000000000E+00   0.00000000000000E+00   0.00000000000000E+00   0.00000000000000E+00  -2.17999842352331E-13
     -1.11604976756646E-12  -1.33404960991879E-12  -1.29517349871978E-17   1.44000000000000E-01   1.44000000000000E-01
      0.00000000000000E+00   0.00000000000000E+00   0.00000000000000E+00   0.00000000000000E+00   0.00000000000000E+00
      2.24537984310398E-17   2.50000000000000E-01   2.50000000000000E-01   0.00000000000000E+00   0.00000000000000E+00
      1.32877567370944E-12   5.27393620935161E-15   1.33404960991879E-12   1.39456900687307E-17   6.00000000000000E-02
      6.00000000000000E-02   0.00000000000000E+00   0.00000000000000E+00   0.00000000000000E+00   0.00000000000000E+00
      0.00000000000000E+00  -2.34477535125727E-17
      3.75000000000000E-01
      0.00000000000000E+00   0.00000000000000E+00   0.00000000000000E+00   0.00000000000000E+00  -2.19972604596551E-13
     -1.17352855405849E-12  -1.39350115865504E-12  -1.30167365358497E-17   1.50000000000000E-01   1.50000000000000E-01
      0.00000000000000E+00   0.00000000000000E+00   0.00000000000000E+00   0.00000000000000E+00   0.00000000000000E+00
      2.41579729833456E-17   2.50000000000000E-01   2.50000000000000E-01   0.00000000000000E+00   0.00000000000000E+00
      1.38827018200906E-12   5.23097664597955E-15   1.39350115865504E-12   1.38810247921577E-17   6.00000000000000E-02
      6.00000000000000E-02   0.00000000000000E+00   0.00000000000000E+00   0.00000000000000E+00   0.00000000000000E+00
      0.00000000000000E+00  -2.50222612396535E-17
      3.90000000000000E-01
      0.00000000000000E+00   0.00000000000000E+00   0.00000000000000E+00   0.00000000000000E+00  -2.21949606411857E-13
     -1.24558511248674E-12  -1.46753471889859E-12  -1.30817100343948E-17   1.56000000000000E-01   1.56000000000000E-01
      0.00000000000000E+00   0.00000000000000E+00   0.00000000000000E+00   0.00000000000000E+00   0.00000000000000E+00
      2.58621432306439E-17   2.50000000000000E-01   2.50000000000000E-01   0.00000000000000E+00   0.00000000000000E+00
      1.46234664016076E-12   5.18807873783621E-15   1.46753471889859E-12   1.38163400755889E-17   6.00000000000000E-02
      6.00000000000000E-02   0.00000000000000E+00   0.00000000000000E+00   0.00000000000000E+00   0.00000000000000E+00
      0.00000000000000E+00  -2.65967732718380E-17
      4.05000000000000E-01
      0.00000000000000E+00   0.00000000000000E+00   0.00000000000000E+00   0.00000000000000E+00  -2.23930778658131E-13
     -1.33399670794887E-12  -1.55792748660700E-12  -1.31466562626108E-17   1.62000000000000E-01   1.62000000000000E-01
      0.00000000000000E+00   0.00000000000000E+00   0.00000000000000E+00   0.00000000000000E+00   0.00000000000000E+00
      2.75663098271697E-17   2.50000000000000E-01   2.50000000000000E-01   0.00000000000000E+00   0.00000000000000E+00
      1.55278224285562E-12   5.14524375138391E-15   1.55792748660700E-12   1.37516353903837E-17   6.00000000000000E-02
      6.00000000000000E-02   0.00000000000000E+00   0.00000000000000E+00   0.00000000000000E+00   0.00000000000000E+00
      0.00000000000000E+00  -2.81712889549427E-17
      4.20000000000000E-01
      0.00000000000000E+00   0.00000000000000E+00   0.00000000000000E+00   0.00000000000000E+00  -2.25916053361494E-13
     -1.44091450688719E-12  -1.66683056024869E-12  -1.32115759754835E-17   1.68000000000000E-01   1.68000000000000E-01
      0.00000000000000E+00   0.00000000000000E+00   0.00000000000000E+00   0.00000000000000E+00   0.00000000000000E+00
      2.92704734230613E-17   2.50000000000000E-01   2.50000000000000E-01   0.00000000000000E+00   0.00000000000000E+00
      1.66172808740817E-12   5.10247284051272E-15   1.66683056024869E-12   1.36869101913023E-17   6.00000000000000E-02
      6.00000000000000E-02   0.00000000000000E+00   0.00000000000000E+00   0.00000000000000E+00   0.00000000000000E+00
      0.00000000000000E+00  -2.97458076388800E-17
      4.35000000000000E-01
      0.00000000000000E+00   0.00000000000000E+00   0.00000000000000E+00   0.00000000000000E+00  -2.27905363698975E-13
     -1.56889900483310E-12  -1.79680436853208E-12  -1.32764699040710E-17   1.74000000000000E-01   1.74000000000000E-01
      0.00000000000000E+00   0.00000000000000E+00   0.00000000000000E+00   0.00000000000000E+00   0.00000000000000E+00
      3.09746346650941E-17   2.50000000000000E-01   2.50000000000000E-01   0.00000000000000E+00   0.00000000000000E+00
      1.79174460149713E-12   5.05976703494581E-15   1.79680436853208E-12   1.36221639159025E-17   6.00000000000000E-02
      6.00000000000000E-02   0.00000000000000E+00   0.00000000000000E+00   0.00000000000000E+00   0.00000000000000E+00
      0.00000000000000E+00  -3.13203286769257E-17
      4.50000000000000E-01
      0.00000000000000E+00   0.00000000000000E+00   0.00000000000000E+00   0.00000000000000E+00  -2.29898643982417E-13
     -1.72096044481349E-12  -1.95085908879591E-12  -1.33413387563349E-17   1.80000000000000E-01   1.80000000000000E-01
      0.00000000000000E+00   0.00000000000000E+00   0.00000000000000E+00   0.00000000000000E+00   0.00000000000000E+00
      3.26787941974099E-17   2.50000000000000E-01   2.50000000000000E-01   0.00000000000000E+00   0.00000000000000E+00
      1.94584196155717E-12   5.01712723874355E-15   1.95085908879591E-12   1.35573959839157E-17   6.00000000000000E-02
      6.00000000000000E-02   0.00000000000000E+00   0.00000000000000E+00   0.00000000000000E+00   0.00000000000000E+00
      0.00000000000000E+00  -3.28948514249907E-17
      4.65000000000000E-01
      0.00000000000000E+00   0.00000000000000E+00   0.00000000000000E+00   0.00000000000000E+00  -2.31895829641800E-13
     -1.90060433505372E-12  -2.13250016469552E-12  -1.34061832179416E-17   1.86000000000000E-01   1.86000000000000E-01
      0.00000000000000E+00   0.00000000000000E+00   0.00000000000000E+00   0.00000000000000E+00   0.00000000000000E+00
      3.43829526622407E-17   2.50000000000000E-01   2.50000000000000E-01   0.00000000000000E+00   0.00000000000000E+00
      2.12752561047267E-12   4.97455422285803E-15   2.13250016469552E-12   1.34926057965991E-17   6.00000000000000E-02
      6.00000000000000E-02   0.00000000000000E+00   0.00000000000000E+00   0.00000000000000E+00   0.00000000000000E+00
      0.00000000000000E+00  -3.44693752408982E-17
      4.80000000000000E-01
      0.00000000000000E+00   0.00000000000000E+00   0.00000000000000E+00   0.00000000000000E+00  -2.33896857207277E-13
     -2.11188218392019E-12  -2.34577904112747E-12  -1.34710039530341E-17   1.92000000000000E-01   1.92000000000000E-01
      0.00000000000000E+00   0.00000000000000E+00   0.00000000000000E+00   0.00000000000000E+00   0.00000000000000E+00
      3.60871107006316E-17   2.50000000000000E-01   2.50000000000000E-01   0.00000000000000E+00   0.00000000000000E+00
      2.34084699252060E-12   4.93204860686883E-15   2.34577904112747E-12   1.34277927360652E-17   6.00000000000000E-02
      6.00000000000000E-02   0.00000000000000E+00   0.00000000000000E+00   0.00000000000000E+00   0.00000000000000E+00
      0.00000000000000E+00  -3.60438994836627E-17
      4.95000000000000E-01
      0.00000000000000E+00   0.00000000000000E+00   0.00000000000000E+00   0.00000000000000E+00  -2.35901664290848E-13
     -2.35944757769052E-12  -2.59534924198137E-12  -1.35358016049754E-17   1.98000000000000E-01   1.98000000000000E-01
      0.00000000000000E+00   0.00000000000000E+00   0.00000000000000E+00   0.00000000000000E+00   0.00000000000000E+00
      3.77912689531602E-17   2.50000000000000E-01   2.50000000000000E-01   0.00000000000000E+00   0.00000000000000E+00
      2.59045963113042E-12   4.88961085095598E-15   2.59534924198137E-12   1.33629561645858E-17   6.00000000000000E-02
      6.00000000000000E-02   0.00000000000000E+00   0.00000000000000E+00   0.00000000000000E+00   0.00000000000000E+00
      0.00000000000000E+00  -3.76184235127707E-17
      5.10000000000000E-01
      0.00000000000000E+00   0.00000000000000E+00   0.00000000000000E+00   0.00000000000000E+00  -2.37910189567197E-13
     -2.64861773261925E-12  -2.88652792218645E-12  -1.36005767970641E-17   2.04000000000000E-01   2.04000000000000E-01
      0.00000000000000E+00   0.00000000000000E+00   0.00000000000000E+00   0.00000000000000E+00   0.00000000000000E+00
      3.94954280606570E-17   2.50000000000000E-01   2.50000000000000E-01   0.00000000000000E+00   0.00000000000000E+00
      2.88168068095266E-12   4.84724123378698E-15   2.88652792218645E-12   1.32980954238695E-17   6.00000000000000E-02
      6.00000000000000E-02   0.00000000000000E+00   0.00000000000000E+00   0.00000000000000E+00   0.00000000000000E+00
      0.00000000000000E+00  -3.91929466874624E-17
      5.25000000000000E-01
      0.00000000000000E+00   0.00000000000000E+00   0.00000000000000E+00   0.00000000000000E+00  -2.39922372753343E-13
     -2.98544065705488E-12  -3.22536302980822E-12  -1.36653301332247E-17   2.10000000000000E-01   2.10000000000000E-01
      0.00000000000000E+00   0.00000000000000E+00   0.00000000000000E+00   0.00000000000000E+00   0.00000000000000E+00
      4.11995886649253E-17   2.50000000000000E-01   2.50000000000000E-01   0.00000000000000E+00   0.00000000000000E+00
      3.22055808997611E-12   4.80493983211047E-15   3.22536302980822E-12   1.32332098343124E-17   6.00000000000000E-02
      6.00000000000000E-02   0.00000000000000E+00   0.00000000000000E+00   0.00000000000000E+00   0.00000000000000E+00
      0.00000000000000E+00  -4.07674683660129E-17
      5.40000000000000E-01
      0.00000000000000E+00   0.00000000000000E+00   0.00000000000000E+00   0.00000000000000E+00  -2.41938154587912E-13
     -3.37676806195781E-12  -3.61870621654572E-12  -1.37300621986717E-17   2.16000000000000E-01   2.16000000000000E-01
      0.00000000000000E+00   0.00000000000000E+00   0.00000000000000E+00   0.00000000000000E+00   0.00000000000000E+00
      4.29037514094633E-17   2.50000000000000E-01   2.50000000000000E-01   0.00000000000000E+00   0.00000000000000E+00
      3.61394351004893E-12   4.76270649679272E-15   3.61870621654572E-12   1.31682986942197E-17   6.00000000000000E-02
      6.00000000000000E-02   0.00000000000000E+00   0.00000000000000E+00   0.00000000000000E+00   0.00000000000000E+00
      0.00000000000000E+00  -4.23419879050113E-17
      5.55000000000000E-01
      0.00000000000000E+00   0.00000000000000E+00   0.00000000000000E+00   0.00000000000000E+00  -2.43957476809227E-13