DF-ISE text

Info {
  version   = 1.0
  type      = xyplot
  datasets  = [
    "time"
    "source OuterVoltage" "source InnerVoltage" "source QuasiFermiPotential" "source DisplacementCurrent" "source eCurrent"
    "source hCurrent" "source TotalCurrent" "source Charge" "topGate OuterVoltage" "topGate InnerVoltage"
    "topGate QuasiFermiPotential" "topGate DisplacementCurrent" "topGate eCurrent" "topGate hCurrent" "topGate TotalCurrent"
    "topGate Charge" "drain OuterVoltage" "drain InnerVoltage" "drain QuasiFermiPotential" "drain DisplacementCurrent"
    "drain eCurrent" "drain hCurrent" "drain TotalCurrent" "drain Charge" "bottomGate OuterVoltage"
    "bottomGate InnerVoltage" "bottomGate QuasiFermiPotential" "bottomGate DisplacementCurrent" "bottomGate eCurrent" "bottomGate hCurrent"
    "bottomGate TotalCurrent" "bottomGate Charge" ]
  functions = [
    Time
    OuterVoltage InnerVoltage QuasiFermiPotential DisplacementCurrent eCurrent
    hCurrent TotalCurrent Charge OuterVoltage InnerVoltage
    QuasiFermiPotential DisplacementCurrent eCurrent hCurrent TotalCurrent
    Charge OuterVoltage InnerVoltage QuasiFermiPotential DisplacementCurrent
    eCurrent hCurrent TotalCurrent Charge OuterVoltage
    InnerVoltage QuasiFermiPotential DisplacementCurrent eCurrent hCurrent
    TotalCurrent Charge ]
}

Data {
      1.50000000000000E-02
      0.00000000000000E+00   0.00000000000000E+00   0.00000000000000E+00   0.00000000000000E+00  -1.84249126809861E-13
     -1.84810198991085E-12  -2.03235111672071E-12  -1.28649250978793E-17   6.00000000000000E-03   6.00000000000000E-03
      0.00000000000000E+00   0.00000000000000E+00   0.00000000000000E+00   0.00000000000000E+00   0.00000000000000E+00
     -4.86592006220634E-17   5.00000000000000E-02   5.00000000000000E-02   0.00000000000000E+00   0.00000000000000E+00
      2.03005661023960E-12   2.29450648110894E-15   2.03235111672071E-12   9.63705593409191E-18   1.90000000000000E-01
      1.90000000000000E-01   0.00000000000000E+00   0.00000000000000E+00   0.00000000000000E+00   0.00000000000000E+00
      0.00000000000000E+00   5.18870697858507E-17
      3.00000000000000E-02
      0.00000000000000E+00   0.00000000000000E+00   0.00000000000000E+00   0.00000000000000E+00  -1.85932212538329E-13
     -1.75186398625441E-12  -1.93779619879274E-12  -1.29299651964603E-17   1.20000000000000E-02   1.20000000000000E-02
      0.00000000000000E+00   0.00000000000000E+00   0.00000000000000E+00   0.00000000000000E+00   0.00000000000000E+00
     -4.69530855633860E-17   5.00000000000000E-02   5.00000000000000E-02   0.00000000000000E+00   0.00000000000000E+00
      1.93553066266206E-12   2.26553613067596E-15   1.93779619879273E-12   9.56854718326333E-18   1.90000000000000E-01
      1.90000000000000E-01   0.00000000000000E+00   0.00000000000000E+00   0.00000000000000E+00   0.00000000000000E+00
      0.00000000000000E+00   5.03145035765829E-17
      4.50000000000000E-02
      0.00000000000000E+00   0.00000000000000E+00   0.00000000000000E+00   0.00000000000000E+00  -1.87618967013992E-13
     -1.66326254126677E-12  -1.85088150828076E-12  -1.29949761526653E-17   1.80000000000000E-02   1.80000000000000E-02
      0.00000000000000E+00   0.00000000000000E+00   0.00000000000000E+00   0.00000000000000E+00   0.00000000000000E+00
     -4.52469129462909E-17   5.00000000000000E-02   5.00000000000000E-02   0.00000000000000E+00   0.00000000000000E+00
      1.84864488065902E-12   2.23662762173697E-15   1.85088150828076E-12   9.49989411178650E-18   1.90000000000000E-01
      1.90000000000000E-01   0.00000000000000E+00   0.00000000000000E+00   0.00000000000000E+00   0.00000000000000E+00
      0.00000000000000E+00   4.87419949871697E-17
      6.00000000000000E-02
      0.00000000000000E+00   0.00000000000000E+00   0.00000000000000E+00   0.00000000000000E+00  -1.89309335045518E-13
     -1.58160069085958E-12  -1.77091002590509E-12  -1.30599587797649E-17   2.40000000000000E-02   2.40000000000000E-02
      0.00000000000000E+00   0.00000000000000E+00   0.00000000000000E+00   0.00000000000000E+00   0.00000000000000E+00
     -4.35406797891158E-17   5.00000000000000E-02   5.00000000000000E-02   0.00000000000000E+00   0.00000000000000E+00
      1.76870223078968E-12   2.20779511541229E-15   1.77091002590509E-12   9.43109156892671E-18   1.90000000000000E-01
      1.90000000000000E-01   0.00000000000000E+00   0.00000000000000E+00   0.00000000000000E+00   0.00000000000000E+00
      0.00000000000000E+00   4.71695469999540E-17
      7.50000000000000E-02
      0.00000000000000E+00   0.00000000000000E+00   0.00000000000000E+00   0.00000000000000E+00  -1.91003261771348E-13
     -1.50629164941013E-12  -1.69729491118147E-12  -1.31249138649098E-17   3.00000000000000E-02   3.00000000000000E-02
      0.00000000000000E+00   0.00000000000000E+00   0.00000000000000E+00   0.00000000000000E+00   0.00000000000000E+00
     -4.18343830177343E-17   5.00000000000000E-02   5.00000000000000E-02   0.00000000000000E+00   0.00000000000000E+00
      1.69511585886905E-12   2.17905231242166E-15   1.69729491118147E-12   9.36213419346194E-18   1.90000000000000E-01
      1.90000000000000E-01   0.00000000000000E+00   0.00000000000000E+00   0.00000000000000E+00   0.00000000000000E+00
      0.00000000000000E+00   4.55971626891822E-17
      9.00000000000000E-02
      0.00000000000000E+00   0.00000000000000E+00   0.00000000000000E+00   0.00000000000000E+00  -1.92700692584783E-13
     -1.43684334592550E-12  -1.62954403851029E-12  -1.31898421700253E-17   3.60000000000000E-02   3.60000000000000E-02
      0.00000000000000E+00   0.00000000000000E+00   0.00000000000000E+00   0.00000000000000E+00   0.00000000000000E+00
     -4.01280194597999E-17   5.00000000000000E-02   5.00000000000000E-02   0.00000000000000E+00   0.00000000000000E+00
      1.62739362621079E-12   2.15041229949289E-15   1.62954403851029E-12   9.29301640321195E-18   1.90000000000000E-01
      1.90000000000000E-01   0.00000000000000E+00   0.00000000000000E+00   0.00000000000000E+00   0.00000000000000E+00
      0.00000000000000E+00   4.40248452266133E-17
      1.05000000000000E-01
      0.00000000000000E+00   0.00000000000000E+00   0.00000000000000E+00   0.00000000000000E+00  -1.94401573394243E-13
     -1.37284558132097E-12  -1.56724715471521E-12  -1.32547444326701E-17   4.20000000000000E-02   4.20000000000000E-02
      0.00000000000000E+00   0.00000000000000E+00   0.00000000000000E+00   0.00000000000000E+00   0.00000000000000E+00
     -3.84215858386419E-17   5.00000000000000E-02   5.00000000000000E-02   0.00000000000000E+00   0.00000000000000E+00
      1.56512526728169E-12   2.12188743351856E-15   1.56724715471521E-12   9.22373238386365E-18   1.90000000000000E-01
      1.90000000000000E-01   0.00000000000000E+00   0.00000000000000E+00   0.00000000000000E+00   0.00000000000000E+00
      0.00000000000000E+00   4.24525978874483E-17
      1.20000000000000E-01
      0.00000000000000E+00   0.00000000000000E+00   0.00000000000000E+00   0.00000000000000E+00  -1.96105850499097E-13
     -1.31395955451217E-12  -1.51006540501126E-12  -1.33196213668616E-17   4.80000000000000E-02   4.80000000000000E-02
      0.00000000000000E+00   0.00000000000000E+00   0.00000000000000E+00   0.00000000000000E+00   0.00000000000000E+00
     -3.67150787667784E-17   5.00000000000000E-02   5.00000000000000E-02   0.00000000000000E+00   0.00000000000000E+00
      1.50797191576608E-12   2.09348924518401E-15   1.51006540501126E-12   9.15427607702646E-18   1.90000000000000E-01
      1.90000000000000E-01   0.00000000000000E+00   0.00000000000000E+00   0.00000000000000E+00   0.00000000000000E+00
      0.00000000000000E+00   4.08804240566135E-17
      1.35000000000000E-01
      0.00000000000000E+00   0.00000000000000E+00   0.00000000000000E+00   0.00000000000000E+00  -1.97813470839432E-13
     -1.25990952885617E-12  -1.45772299969560E-12  -1.33844736638672E-17   5.40000000000000E-02   5.40000000000000E-02
      0.00000000000000E+00   0.00000000000000E+00   0.00000000000000E+00   0.00000000000000E+00   0.00000000000000E+00
     -3.50084947390068E-17   5.00000000000000E-02   5.00000000000000E-02   0.00000000000000E+00   0.00000000000000E+00
      1.45565777131568E-12   2.06522837992146E-15   1.45772299969560E-12   9.08464116744291E-18   1.90000000000000E-01
      1.90000000000000E-01   0.00000000000000E+00   0.00000000000000E+00   0.00000000000000E+00   0.00000000000000E+00
      0.00000000000000E+00   3.93083272354311E-17
      1.50000000000000E-01
      0.00000000000000E+00   0.00000000000000E+00   0.00000000000000E+00   0.00000000000000E+00  -1.99524381800049E-13
     -1.21047643543442E-12  -1.41000081723447E-12  -1.34493019929635E-17   6.00000000000000E-02   6.00000000000000E-02
      0.00000000000000E+00   0.00000000000000E+00   0.00000000000000E+00   0.00000000000000E+00   0.00000000000000E+00
     -3.33018301250248E-17   5.00000000000000E-02   5.00000000000000E-02   0.00000000000000E+00   0.00000000000000E+00
      1.40796370267799E-12   2.03711455648126E-15   1.41000081723447E-12   9.01482106927131E-18   1.90000000000000E-01
      1.90000000000000E-01   0.00000000000000E+00   0.00000000000000E+00   0.00000000000000E+00   0.00000000000000E+00
      0.00000000000000E+00   3.77363110487170E-17
      1.65000000000000E-01
      0.00000000000000E+00   0.00000000000000E+00   0.00000000000000E+00   0.00000000000000E+00  -2.01238531451473E-13
     -1.16549323562541E-12  -1.36673176707688E-12  -1.35141070021641E-17   6.60000000000000E-02   6.60000000000000E-02
      0.00000000000000E+00   0.00000000000000E+00   0.00000000000000E+00   0.00000000000000E+00   0.00000000000000E+00
     -3.15950811615340E-17   5.00000000000000E-02   5.00000000000000E-02   0.00000000000000E+00   0.00000000000000E+00
      1.36472261051158E-12   2.00915656530557E-15   1.36673176707688E-12   8.94480891134816E-18   1.90000000000000E-01
      1.90000000000000E-01   0.00000000000000E+00   0.00000000000000E+00   0.00000000000000E+00   0.00000000000000E+00
      0.00000000000000E+00   3.61643792523500E-17
      1.80000000000000E-01
      0.00000000000000E+00   0.00000000000000E+00   0.00000000000000E+00   0.00000000000000E+00  -2.02955868482606E-13
     -1.12484189189977E-12  -1.32779776038238E-12  -1.35788893189163E-17   7.20000000000000E-02   7.20000000000000E-02
      0.00000000000000E+00   0.00000000000000E+00   0.00000000000000E+00   0.00000000000000E+00   0.00000000000000E+00
     -2.98882439437698E-17   5.00000000000000E-02   5.00000000000000E-02   0.00000000000000E+00   0.00000000000000E+00
      1.32581639810754E-12   1.98136227483623E-15   1.32779776038238E-12   8.87459752132591E-18   1.90000000000000E-01
      1.90000000000000E-01   0.00000000000000E+00   0.00000000000000E+00   0.00000000000000E+00   0.00000000000000E+00
      0.00000000000000E+00   3.45925357413602E-17
      1.95000000000000E-01
      0.00000000000000E+00   0.00000000000000E+00   0.00000000000000E+00   0.00000000000000E+00  -2.04676342190731E-13
     -1.08845182269635E-12  -1.29312816488708E-12  -1.36436495507674E-17   7.80000000000000E-02   7.80000000000000E-02
      0.00000000000000E+00   0.00000000000000E+00   0.00000000000000E+00   0.00000000000000E+00   0.00000000000000E+00
     -2.81813144163932E-17   5.00000000000000E-02   5.00000000000000E-02   0.00000000000000E+00   0.00000000000000E+00
      1.29117442621935E-12   1.95373866772603E-15   1.29312816488708E-12   8.80417940857046E-18   1.90000000000000E-01
      1.90000000000000E-01   0.00000000000000E+00   0.00000000000000E+00   0.00000000000000E+00   0.00000000000000E+00
      0.00000000000000E+00   3.30207845585902E-17
      2.10000000000000E-01
      0.00000000000000E+00   0.00000000000000E+00   0.00000000000000E+00   0.00000000000000E+00  -2.06399902453707E-13
     -1.05629974410740E-12  -1.26269964656111E-12  -1.37083882860021E-17   8.40000000000000E-02   8.40000000000000E-02
      0.00000000000000E+00   0.00000000000000E+00   0.00000000000000E+00   0.00000000000000E+00   0.00000000000000E+00
     -2.64742883636768E-17   5.00000000000000E-02   5.00000000000000E-02   0.00000000000000E+00   0.00000000000000E+00
      1.26077335467612E-12   1.92629188499249E-15   1.26269964656111E-12   8.73354674568821E-18   1.90000000000000E-01
      1.90000000000000E-01   0.00000000000000E+00   0.00000000000000E+00   0.00000000000000E+00   0.00000000000000E+00
      0.00000000000000E+00   3.14491299039907E-17
      2.25000000000000E-01
      0.00000000000000E+00   0.00000000000000E+00   0.00000000000000E+00   0.00000000000000E+00  -2.08126499770726E-13
     -1.02841082780596E-12  -1.23653732757668E-12  -1.37731060942498E-17   9.00000000000000E-02   9.00000000000000E-02
      0.00000000000000E+00   0.00000000000000E+00   0.00000000000000E+00   0.00000000000000E+00   0.00000000000000E+00
     -2.47671613989043E-17   5.00000000000000E-02   5.00000000000000E-02   0.00000000000000E+00   0.00000000000000E+00
      1.23463830029003E-12   1.89902728665485E-15   1.23653732757668E-12   8.66269134853701E-18   1.90000000000000E-01
      1.90000000000000E-01   0.00000000000000E+00   0.00000000000000E+00   0.00000000000000E+00   0.00000000000000E+00
      0.00000000000000E+00   2.98775761446171E-17
      2.40000000000000E-01
      0.00000000000000E+00   0.00000000000000E+00   0.00000000000000E+00   0.00000000000000E+00  -2.09856085687316E-13
     -1.00486113079904E-12  -1.21471721648636E-12  -1.38378035270635E-17   9.60000000000000E-02   9.60000000000000E-02
      0.00000000000000E+00   0.00000000000000E+00   0.00000000000000E+00   0.00000000000000E+00   0.00000000000000E+00
     -2.30599289528963E-17   5.00000000000000E-02   5.00000000000000E-02   0.00000000000000E+00   0.00000000000000E+00
      1.21284526696775E-12   1.87194951860312E-15   1.21471721648636E-12   8.59160465455797E-18   1.90000000000000E-01
      1.90000000000000E-01   0.00000000000000E+00   0.00000000000000E+00   0.00000000000000E+00   0.00000000000000E+00
      0.00000000000000E+00   2.83061278254018E-17
      2.55000000000000E-01
      0.00000000000000E+00   0.00000000000000E+00   0.00000000000000E+00   0.00000000000000E+00  -2.11588611971496E-13
     -9.85781278013700E-13  -1.19736988998520E-12  -1.39024811184700E-17   1.02000000000000E-01   1.02000000000000E-01
      0.00000000000000E+00   0.00000000000000E+00   0.00000000000000E+00   0.00000000000000E+00   0.00000000000000E+00
     -2.13525862615628E-17   5.00000000000000E-02   5.00000000000000E-02   0.00000000000000E+00   0.00000000000000E+00
      1.19552482740796E-12   1.84506257723138E-15   1.19736988998520E-12   8.52027769924461E-18   1.90000000000000E-01
      1.90000000000000E-01   0.00000000000000E+00   0.00000000000000E+00   0.00000000000000E+00   0.00000000000000E+00
      0.00000000000000E+00   2.67347896807882E-17
      2.70000000000000E-01
      0.00000000000000E+00   0.00000000000000E+00   0.00000000000000E+00   0.00000000000000E+00  -2.13324031212176E-13
     -9.71361403196003E-13  -1.18468543440818E-12  -1.39671393854916E-17   1.08000000000000E-01   1.08000000000000E-01
      0.00000000000000E+00   0.00000000000000E+00   0.00000000000000E+00   0.00000000000000E+00   0.00000000000000E+00
     -1.96451283523713E-17   5.00000000000000E-02   5.00000000000000E-02   0.00000000000000E+00   0.00000000000000E+00
      1.18286706452731E-12   1.81836988086494E-15   1.18468543440818E-12   8.44870109054425E-18   1.90000000000000E-01
      1.90000000000000E-01   0.00000000000000E+00   0.00000000000000E+00   0.00000000000000E+00   0.00000000000000E+00
      0.00000000000000E+00   2.51635666473187E-17
      2.85000000000000E-01
      0.00000000000000E+00   0.00000000000000E+00   0.00000000000000E+00   0.00000000000000E+00  -2.15062296664384E-13
     -9.61857376881351E-13  -1.17691967354573E-12  -1.40317788286394E-17   1.14000000000000E-01   1.14000000000000E-01
      0.00000000000000E+00   0.00000000000000E+00   0.00000000000000E+00   0.00000000000000E+00   0.00000000000000E+00
     -1.79375500296045E-17   5.00000000000000E-02   5.00000000000000E-02   0.00000000000000E+00   0.00000000000000E+00
      1.17512779921375E-12   1.79187433198708E-15   1.17691967354574E-12   8.37686498096059E-18   1.90000000000000E-01
      1.90000000000000E-01   0.00000000000000E+00   0.00000000000000E+00   0.00000000000000E+00   0.00000000000000E+00
      0.00000000000000E+00   2.35924638772833E-17
      3.00000000000000E-01
      0.00000000000000E+00   0.00000000000000E+00   0.00000000000000E+00   0.00000000000000E+00  -2.16803362439626E-13
     -9.57598372213816E-13  -1.17440173465344E-12  -1.40963999323775E-17   1.20000000000000E-01   1.20000000000000E-01
      0.00000000000000E+00   0.00000000000000E+00   0.00000000000000E+00   0.00000000000000E+00   0.00000000000000E+00
     -1.62298458582681E-17   5.00000000000000E-02   5.00000000000000E-02   0.00000000000000E+00   0.00000000000000E+00
      1.17263615627613E-12   1.76557837731360E-15   1.17440173465344E-12   8.30475903709844E-18   1.90000000000000E-01
      1.90000000000000E-01   0.00000000000000E+00   0.00000000000000E+00   0.00000000000000E+00   0.00000000000000E+00
      0.00000000000000E+00   2.20214867535472E-17
      3.15000000000000E-01
      0.00000000000000E+00   0.00000000000000E+00   0.00000000000000E+00   0.00000000000000E+00  -2.18547182651034E-13
     -9.58995839943107E-13  -1.17754302259414E-12  -1.41610031655589E-17   1.26000000000000E-01   1.26000000000000E-01
      0.00000000000000E+00   0.00000000000000E+00   0.00000000000000E+00   0.00000000000000E+00   0.00000000000000E+00
     -1.45220101464893E-17   5.00000000000000E-02   5.00000000000000E-02   0.00000000000000E+00   0.00000000000000E+00
      1.17580353853857E-12   1.73948405557181E-15   1.17754302259414E-12   8.23237240635927E-18   1.90000000000000E-01
      1.90000000000000E-01   0.00000000000000E+00   0.00000000000000E+00   0.00000000000000E+00   0.00000000000000E+00
      0.00000000000000E+00   2.04506409056889E-17
      3.30000000000000E-01
      0.00000000000000E+00   0.00000000000000E+00   0.00000000000000E+00   0.00000000000000E+00  -2.20293712202444E-13
     -9.66553982996210E-13  -1.18684769519865E-12  -1.42255889818312E-17   1.32000000000000E-01   1.32000000000000E-01
      0.00000000000000E+00   0.00000000000000E+00   0.00000000000000E+00   0.00000000000000E+00   0.00000000000000E+00
     -1.28140369262275E-17   5.00000000000000E-02   5.00000000000000E-02   0.00000000000000E+00   0.00000000000000E+00
      1.18513410216078E-12   1.71359303786929E-15   1.18684769519865E-12   8.15969368046033E-18   1.90000000000000E-01
      1.90000000000000E-01   0.00000000000000E+00   0.00000000000000E+00   0.00000000000000E+00   0.00000000000000E+00
      0.00000000000000E+00   1.88799322275985E-17
      3.45000000000000E-01
      0.00000000000000E+00   0.00000000000000E+00   0.00000000000000E+00   0.00000000000000E+00  -2.22042907502067E-13
     -9.80881838493582E-13  -1.20292474599565E-12  -1.42901578200132E-17   1.38000000000000E-01   1.38000000000000E-01
      0.00000000000000E+00   0.00000000000000E+00   0.00000000000000E+00   0.00000000000000E+00   0.00000000000000E+00
     -1.11059199320982E-17   5.00000000000000E-02   5.00000000000000E-02   0.00000000000000E+00   0.00000000000000E+00
      1.20123683933919E-12   1.68790665646225E-15   1.20292474599565E-12   8.08671085540901E-18   1.90000000000000E-01
      1.90000000000000E-01   0.00000000000000E+00   0.00000000000000E+00   0.00000000000000E+00   0.00000000000000E+00
      0.00000000000000E+00   1.73093668967024E-17
      3.60000000000000E-01
      0.00000000000000E+00   0.00000000000000E+00   0.00000000000000E+00   0.00000000000000E+00  -2.23794724349309E-13
     -1.00270709096498E-12  -1.22650181531429E-12  -1.43547101044392E-17   1.44000000000000E-01   1.44000000000000E-01
      0.00000000000000E+00   0.00000000000000E+00   0.00000000000000E+00   0.00000000000000E+00   0.00000000000000E+00
     -9.39765257808105E-18   5.00000000000000E-02   5.00000000000000E-02   0.00000000000000E+00   0.00000000000000E+00
      1.22483938939564E-12   1.66242591864765E-15   1.22650181531429E-12   8.01341128751874E-18   1.90000000000000E-01
      1.90000000000000E-01   0.00000000000000E+00   0.00000000000000E+00   0.00000000000000E+00   0.00000000000000E+00
      0.00000000000000E+00   1.57389513950015E-17
      3.75000000000000E-01
      0.00000000000000E+00   0.00000000000000E+00   0.00000000000000E+00   0.00000000000000E+00  -2.25549119940986E-13
     -1.03289175481259E-12  -1.25844087475358E-12  -1.44192462452725E-17   1.50000000000000E-01   1.50000000000000E-01
      0.00000000000000E+00   0.00000000000000E+00   0.00000000000000E+00   0.00000000000000E+00   0.00000000000000E+00
     -7.68922793186113E-18   5.00000000000000E-02   5.00000000000000E-02   0.00000000000000E+00   0.00000000000000E+00
      1.25680372324247E-12   1.63715151110671E-15   1.25844087475358E-12   7.93978164500041E-18   1.90000000000000E-01
      1.90000000000000E-01   0.00000000000000E+00   0.00000000000000E+00   0.00000000000000E+00   0.00000000000000E+00
      0.00000000000000E+00   1.41686925321332E-17
      3.90000000000000E-01
      0.00000000000000E+00   0.00000000000000E+00   0.00000000000000E+00   0.00000000000000E+00  -2.27306050869960E-13
     -1.07244987676001E-12  -1.29975592762997E-12  -1.44837666387847E-17   1.56000000000000E-01   1.56000000000000E-01
      0.00000000000000E+00   0.00000000000000E+00   0.00000000000000E+00   0.00000000000000E+00   0.00000000000000E+00
     -5.98063868651295E-18   5.00000000000000E-02   5.00000000000000E-02   0.00000000000000E+00   0.00000000000000E+00
      1.29814384384108E-12   1.61208378889430E-15   1.29975592762997E-12   7.86580785460532E-18   1.90000000000000E-01
      1.90000000000000E-01   0.00000000000000E+00   0.00000000000000E+00   0.00000000000000E+00   0.00000000000000E+00
      0.00000000000000E+00   1.25985974706924E-17
      4.05000000000000E-01
      0.00000000000000E+00   0.00000000000000E+00   0.00000000000000E+00   0.00000000000000E+00  -2.29065475680258E-13
     -1.12256742018689E-12  -1.35163289586715E-12  -1.45482716676005E-17   1.62000000000000E-01   1.62000000000000E-01
      0.00000000000000E+00   0.00000000000000E+00   0.00000000000000E+00   0.00000000000000E+00   0.00000000000000E+00
     -4.27187712920639E-18   5.00000000000000E-02   5.00000000000000E-02   0.00000000000000E+00   0.00000000000000E+00
      1.35004567311536E-12   1.58722275179221E-15   1.35163289586715E-12   7.79147504272986E-18   1.90000000000000E-01
      1.90000000000000E-01   0.00000000000000E+00   0.00000000000000E+00   0.00000000000000E+00   0.00000000000000E+00
      0.00000000000000E+00   1.10286737540770E-17
      4.20000000000000E-01
      0.00000000000000E+00   0.00000000000000E+00   0.00000000000000E+00   0.00000000000000E+00  -2.30827352207801E-13
     -1.18462450288921E-12  -1.41545185509701E-12  -1.46127617009047E-17   1.68000000000000E-01   1.68000000000000E-01
      0.00000000000000E+00   0.00000000000000E+00   0.00000000000000E+00   0.00000000000000E+00   0.00000000000000E+00
     -2.56293510656890E-18   5.00000000000000E-02   5.00000000000000E-02   0.00000000000000E+00   0.00000000000000E+00
      1.41388928709392E-12   1.56256800308898E-15   1.41545185509701E-12   7.71676747031790E-18   1.90000000000000E-01
      1.90000000000000E-01   0.00000000000000E+00   0.00000000000000E+00   0.00000000000000E+00   0.00000000000000E+00
      0.00000000000000E+00   9.45892933715565E-18
      4.35000000000000E-01
      0.00000000000000E+00   0.00000000000000E+00   0.00000000000000E+00   0.00000000000000E+00  -2.32591639171623E-13
     -1.26022016800424E-12  -1.49281180717587E-12  -1.46772370946108E-17   1.74000000000000E-01   1.74000000000000E-01
      0.00000000000000E+00   0.00000000000000E+00   0.00000000000000E+00   0.00000000000000E+00   0.00000000000000E+00
     -8.53803986293275E-19   5.00000000000000E-02   5.00000000000000E-02   0.00000000000000E+00   0.00000000000000E+00
      1.49127368848097E-12   1.53811869489875E-15   1.49281180717587E-12   7.64166846081340E-18   1.90000000000000E-01
      1.90000000000000E-01   0.00000000000000E+00   0.00000000000000E+00   0.00000000000000E+00   0.00000000000000E+00
      0.00000000000000E+00   7.88937262009072E-18
      4.50000000000000E-01
      0.00000000000000E+00   0.00000000000000E+00   0.00000000000000E+00   0.00000000000000E+00  -2.34358295874791E-13
     -1.35119987461319E-12  -1.58555817048798E-12  -1.47416981914873E-17   1.80000000000000E-01   1.80000000000000E-01
      0.00000000000000E+00   0.00000000000000E+00   0.00000000000000E+00   0.00000000000000E+00   0.00000000000000E+00
      8.55525385471978E-19   5.00000000000000E-02   5.00000000000000E-02   0.00000000000000E+00   0.00000000000000E+00
      1.58404429703447E-12   1.51387345351615E-15   1.58555817048798E-12   7.56616032032177E-18   1.90000000000000E-01
      1.90000000000000E-01   0.00000000000000E+00   0.00000000000000E+00   0.00000000000000E+00   0.00000000000000E+00
      0.00000000000000E+00   6.32001248569355E-18
      4.65000000000000E-01
      0.00000000000000E+00   0.00000000000000E+00   0.00000000000000E+00   0.00000000000000E+00  -2.36127280462329E-13
     -1.45968589996589E-12  -1.69581318042822E-12  -1.48061453212380E-17   1.86000000000000E-01   1.86000000000000E-01
      0.00000000000000E+00   0.00000000000000E+00   0.00000000000000E+00   0.00000000000000E+00   0.00000000000000E+00
      2.56506273147243E-18   5.00000000000000E-02   5.00000000000000E-02   0.00000000000000E+00   0.00000000000000E+00
      1.69432335014398E-12   1.48983028424317E-15   1.69581318042822E-12   7.49022424903220E-18   1.90000000000000E-01
      1.90000000000000E-01   0.00000000000000E+00   0.00000000000000E+00   0.00000000000000E+00   0.00000000000000E+00
      0.00000000000000E+00   4.75085834073338E-18
      4.80000000000000E-01
      0.00000000000000E+00   0.00000000000000E+00   0.00000000000000E+00   0.00000000000000E+00  -2.37898553965335E-13
     -1.58811084938372E-12  -1.82600940334906E-12  -1.48705788005348E-17   1.92000000000000E-01   1.92000000000000E-01
      0.00000000000000E+00   0.00000000000000E+00   0.00000000000000E+00   0.00000000000000E+00   0.00000000000000E+00
      4.27481839602638E-18   5.00000000000000E-02   5.00000000000000E-02   0.00000000000000E+00   0.00000000000000E+00
      1.82454341689523E-12   1.46598645382134E-15   1.82600940334906E-12   7.41384024283394E-18   1.90000000000000E-01
      1.90000000000000E-01   0.00000000000000E+00   0.00000000000000E+00   0.00000000000000E+00   0.00000000000000E+00
      0.00000000000000E+00   3.18192016167452E-18
      4.95000000000000E-01
      0.00000000000000E+00   0.00000000000000E+00   0.00000000000000E+00   0.00000000000000E+00  -2.39672075436488E-13
     -1.73925447273029E-12  -1.97892654816678E-12  -1.49349989329964E-17   1.98000000000000E-01   1.98000000000000E-01
      0.00000000000000E+00   0.00000000000000E+00   0.00000000000000E+00   0.00000000000000E+00   0.00000000000000E+00
      5.98480340369661E-18   5.00000000000000E-02   5.00000000000000E-02   0.00000000000000E+00   0.00000000000000E+00
      1.97748420982413E-12   1.44233834265163E-15   1.97892654816678E-12   7.33698698392478E-18   1.90000000000000E-01
      1.90000000000000E-01   0.00000000000000E+00   0.00000000000000E+00   0.00000000000000E+00   0.00000000000000E+00
      0.00000000000000E+00   1.61320854537507E-18
      5.10000000000000E-01
      0.00000000000000E+00   0.00000000000000E+00   0.00000000000000E+00   0.00000000000000E+00  -2.41447804587672E-13
     -1.91628398794709E-12  -2.15773179253476E-12  -1.49994060091095E-17   2.04000000000000E-01   2.04000000000000E-01
      0.00000000000000E+00   0.00000000000000E+00   0.00000000000000E+00   0.00000000000000E+00   0.00000000000000E+00
      7.69502952470435E-18   5.00000000000000E-02   5.00000000000000E-02   0.00000000000000E+00   0.00000000000000E+00
      2.15631291126932E-12   1.41888126544575E-15   2.15773179253476E-12   7.25964171905883E-18   1.90000000000000E-01
      1.90000000000000E-01   0.00000000000000E+00   0.00000000000000E+00   0.00000000000000E+00   0.00000000000000E+00
      0.00000000000000E+00   4.47347653463367E-20
      5.25000000000000E-01
      0.00000000000000E+00   0.00000000000000E+00   0.00000000000000E+00   0.00000000000000E+00  -2.43225701591309E-13
     -2.12279811253885E-12  -2.36602381413016E-12  -1.50638003060862E-17   2.10000000000000E-01   2.10000000000000E-01
      0.00000000000000E+00   0.00000000000000E+00   0.00000000000000E+00   0.00000000000000E+00   0.00000000000000E+00
      9.40550934792980E-18   5.00000000000000E-02   5.00000000000000E-02   0.00000000000000E+00   0.00000000000000E+00
      2.36462820487791E-12   1.39560925224751E-15   2.36602381413016E-12   7.18178012390955E-18   1.90000000000000E-01
      1.90000000000000E-01   0.00000000000000E+00   0.00000000000000E+00   0.00000000000000E+00   0.00000000000000E+00
      0.00000000000000E+00  -1.52348916575317E-18
      5.40000000000000E-01
      0.00000000000000E+00   0.00000000000000E+00   0.00000000000000E+00   0.00000000000000E+00  -2.45005725288470E-13
     -2.36287500310827E-12  -2.60788072839674E-12  -1.51281820876516E-17   2.16000000000000E-01   2.16000000000000E-01
      0.00000000000000E+00   0.00000000000000E+00   0.00000000000000E+00   0.00000000000000E+00   0.00000000000000E+00
      1.11162563624513E-17   5.00000000000000E-02   5.00000000000000E-02   0.00000000000000E+00   0.00000000000000E+00
      2.60650821361503E-12   1.37251478171772E-15   2.60788072839674E-12   7.10337615183278E-18   1.90000000000000E-01
      1.90000000000000E-01   0.00000000000000E+00   0.00000000000000E+00   0.00000000000000E+00   0.00000000000000E+00
      0.00000000000000E+00  -3.09145042663246E-18
      5.55000000000000E-01
      0.00000000000000E+00   0.00000000000000E+00   0.00000000000000E+00   0.00000000000000E+00  -2.46787837631358E-13