DF-ISE text

Info {
  version   = 1.0
  type      = xyplot
  datasets  = [
    "time"
    "source OuterVoltage" "source InnerVoltage" "source QuasiFermiPotential" "source DisplacementCurrent" "source eCurrent"
    "source hCurrent" "source TotalCurrent" "source Charge" "topGate OuterVoltage" "topGate InnerVoltage"
    "topGate QuasiFermiPotential" "topGate DisplacementCurrent" "topGate eCurrent" "topGate hCurrent" "topGate TotalCurrent"
    "topGate Charge" "drain OuterVoltage" "drain InnerVoltage" "drain QuasiFermiPotential" "drain DisplacementCurrent"
    "drain eCurrent" "drain hCurrent" "drain TotalCurrent" "drain Charge" "bottomGate OuterVoltage"
    "bottomGate InnerVoltage" "bottomGate QuasiFermiPotential" "bottomGate DisplacementCurrent" "bottomGate eCurrent" "bottomGate hCurrent"
    "bottomGate TotalCurrent" "bottomGate Charge" ]
  functions = [
    Time
    OuterVoltage InnerVoltage QuasiFermiPotential DisplacementCurrent eCurrent
    hCurrent TotalCurrent Charge OuterVoltage InnerVoltage
    QuasiFermiPotential DisplacementCurrent eCurrent hCurrent TotalCurrent
    Charge OuterVoltage InnerVoltage QuasiFermiPotential DisplacementCurrent
    eCurrent hCurrent TotalCurrent Charge OuterVoltage
    InnerVoltage QuasiFermiPotential DisplacementCurrent eCurrent hCurrent
    TotalCurrent Charge ]
}

Data {
      1.50000000000000E-02
      0.00000000000000E+00   0.00000000000000E+00   0.00000000000000E+00   0.00000000000000E+00  -1.67851797890680E-13
     -1.62635543243709E-11  -1.64314061222616E-11  -1.12265271234475E-17   6.00000000000000E-03   6.00000000000000E-03
      0.00000000000000E+00   0.00000000000000E+00   0.00000000000000E+00   0.00000000000000E+00   0.00000000000000E+00
     -1.20330292427146E-17   3.00000000000000E-01   3.00000000000000E-01   0.00000000000000E+00   0.00000000000000E+00
      1.64242957836668E-11   7.11033859476026E-15   1.64314061222616E-11   1.67133858370240E-17   4.00000000000000E-02
      4.00000000000000E-02   0.00000000000000E+00   0.00000000000000E+00   0.00000000000000E+00   0.00000000000000E+00
      0.00000000000000E+00   6.54617052913810E-18
      3.00000000000000E-02
      0.00000000000000E+00   0.00000000000000E+00   0.00000000000000E+00   0.00000000000000E+00  -1.69683898740184E-13
     -1.48477013223071E-11  -1.50173852210473E-11  -1.12926596550804E-17   1.20000000000000E-02   1.20000000000000E-02
      0.00000000000000E+00   0.00000000000000E+00   0.00000000000000E+00   0.00000000000000E+00   0.00000000000000E+00
     -1.03285402662729E-17   3.00000000000000E-01   3.00000000000000E-01   0.00000000000000E+00   0.00000000000000E+00
      1.50103125651202E-11   7.07265592706476E-15   1.50173852210472E-11   1.66492227442765E-17   4.00000000000000E-02
      4.00000000000000E-02   0.00000000000000E+00   0.00000000000000E+00   0.00000000000000E+00   0.00000000000000E+00
      0.00000000000000E+00   4.97197717707685E-18
      4.50000000000000E-02
      0.00000000000000E+00   0.00000000000000E+00   0.00000000000000E+00   0.00000000000000E+00  -1.71522512543844E-13
     -1.35893710808941E-11  -1.37608935934379E-11  -1.13587307340972E-17   1.80000000000000E-02   1.80000000000000E-02
      0.00000000000000E+00   0.00000000000000E+00   0.00000000000000E+00   0.00000000000000E+00   0.00000000000000E+00
     -8.62407869733218E-18   3.00000000000000E-01   3.00000000000000E-01   0.00000000000000E+00   0.00000000000000E+00
      1.37538594458942E-11   7.03414754374312E-15   1.37608935934379E-11   1.65850530058469E-17   4.00000000000000E-02
      4.00000000000000E-02   0.00000000000000E+00   0.00000000000000E+00   0.00000000000000E+00   0.00000000000000E+00
      0.00000000000000E+00   3.39775642558247E-18
      6.00000000000000E-02
      0.00000000000000E+00   0.00000000000000E+00   0.00000000000000E+00   0.00000000000000E+00  -1.73367536650560E-13
     -1.24727300235996E-11  -1.26460975602502E-11  -1.14247422492651E-17   2.40000000000000E-02   2.40000000000000E-02
      0.00000000000000E+00   0.00000000000000E+00   0.00000000000000E+00   0.00000000000000E+00   0.00000000000000E+00
     -6.91964350481546E-18   3.00000000000000E-01   3.00000000000000E-01   0.00000000000000E+00   0.00000000000000E+00
      1.26391026463625E-11   6.99491388765799E-15   1.26460975602502E-11   1.65208764494990E-17   4.00000000000000E-02
      4.00000000000000E-02   0.00000000000000E+00   0.00000000000000E+00   0.00000000000000E+00   0.00000000000000E+00
      0.00000000000000E+00   1.82350930458149E-18
      7.50000000000000E-02
      0.00000000000000E+00   0.00000000000000E+00   0.00000000000000E+00   0.00000000000000E+00  -1.75218869641217E-13
     -1.14834513033754E-11  -1.16586701730167E-11  -1.14906960250442E-17   3.00000000000000E-02   3.00000000000000E-02
      0.00000000000000E+00   0.00000000000000E+00   0.00000000000000E+00   0.00000000000000E+00   0.00000000000000E+00
     -5.21523368884655E-18   3.00000000000000E-01   3.00000000000000E-01   0.00000000000000E+00   0.00000000000000E+00
      1.16517151289757E-11   6.95504404099844E-15   1.16586701730167E-11   1.64566929009377E-17   4.00000000000000E-02
      4.00000000000000E-02   0.00000000000000E+00   0.00000000000000E+00   0.00000000000000E+00   0.00000000000000E+00
      0.00000000000000E+00   2.49236812953019E-19
      9.00000000000000E-02
      0.00000000000000E+00   0.00000000000000E+00   0.00000000000000E+00   0.00000000000000E+00  -1.77076411346825E-13
     -1.06085973451017E-11  -1.07856737564485E-11  -1.15565938238979E-17   3.60000000000000E-02   3.60000000000000E-02
      0.00000000000000E+00   0.00000000000000E+00   0.00000000000000E+00   0.00000000000000E+00   0.00000000000000E+00
     -3.51084827940824E-18   3.00000000000000E-01   3.00000000000000E-01   0.00000000000000E+00   0.00000000000000E+00
      1.07787591396456E-11   6.91461680287465E-15   1.07856737564485E-11   1.63925021834554E-17   4.00000000000000E-02
      4.00000000000000E-02   0.00000000000000E+00   0.00000000000000E+00   0.00000000000000E+00   0.00000000000000E+00
      0.00000000000000E+00  -1.32506008014926E-18
      1.05000000000000E-01
      0.00000000000000E+00   0.00000000000000E+00   0.00000000000000E+00   0.00000000000000E+00  -1.78940062863767E-13
     -9.83650984064722E-12  -1.00154499035110E-11  -1.16224373485198E-17   4.20000000000000E-02   4.20000000000000E-02
      0.00000000000000E+00   0.00000000000000E+00   0.00000000000000E+00   0.00000000000000E+00   0.00000000000000E+00
     -1.80648633505373E-18   3.00000000000000E-01   3.00000000000000E-01   0.00000000000000E+00   0.00000000000000E+00
      1.00085762016116E-11   6.87370189938711E-15   1.00154499035110E-11   1.63283041175992E-17   4.00000000000000E-02
      4.00000000000000E-02   0.00000000000000E+00   0.00000000000000E+00   0.00000000000000E+00   0.00000000000000E+00
      0.00000000000000E+00  -2.89938043402575E-18
      1.20000000000000E-01
      0.00000000000000E+00   0.00000000000000E+00   0.00000000000000E+00   0.00000000000000E+00  -1.80809726566462E-13
     -9.15670709019706E-12  -9.33751681676352E-12  -1.16882282439798E-17   4.80000000000000E-02   4.80000000000000E-02
      0.00000000000000E+00   0.00000000000000E+00   0.00000000000000E+00   0.00000000000000E+00   0.00000000000000E+00
     -1.02146941668359E-19   3.00000000000000E-01   3.00000000000000E-01   0.00000000000000E+00   0.00000000000000E+00
      9.33068445575013E-12   6.83236101338936E-15   9.33751681676352E-12   1.62640985208558E-17   4.00000000000000E-02
      4.00000000000000E-02   0.00000000000000E+00   0.00000000000000E+00   0.00000000000000E+00   0.00000000000000E+00
      0.00000000000000E+00  -4.47372333520767E-18
      1.35000000000000E-01
      0.00000000000000E+00   0.00000000000000E+00   0.00000000000000E+00   0.00000000000000E+00  -1.82685306117723E-13
     -8.55978857814686E-12  -8.74247388426458E-12  -1.17539680997936E-17   5.40000000000000E-02   5.40000000000000E-02
      0.00000000000000E+00   0.00000000000000E+00   0.00000000000000E+00   0.00000000000000E+00   0.00000000000000E+00
      1.60217078872138E-18   3.00000000000000E-01   3.00000000000000E-01   0.00000000000000E+00   0.00000000000000E+00
      8.73568323557004E-12   6.79064869455223E-15   8.74247388426459E-12   1.61998852073516E-17   4.00000000000000E-02
      4.00000000000000E-02   0.00000000000000E+00   0.00000000000000E+00   0.00000000000000E+00   0.00000000000000E+00
      0.00000000000000E+00  -6.04808789627935E-18
      1.50000000000000E-01
      0.00000000000000E+00   0.00000000000000E+00   0.00000000000000E+00   0.00000000000000E+00  -1.84566706477051E-13
     -8.03734666777842E-12  -8.22191337425547E-12  -1.18196584519158E-17   6.00000000000000E-02   6.00000000000000E-02
      0.00000000000000E+00   0.00000000000000E+00   0.00000000000000E+00   0.00000000000000E+00   0.00000000000000E+00
      3.30646771909396E-18   3.00000000000000E-01   3.00000000000000E-01   0.00000000000000E+00   0.00000000000000E+00
      8.21516476107649E-12   6.74861317899263E-15   8.22191337425548E-12   1.61356639875653E-17   4.00000000000000E-02
      4.00000000000000E-02   0.00000000000000E+00   0.00000000000000E+00   0.00000000000000E+00   0.00000000000000E+00
      0.00000000000000E+00  -7.62247325474352E-18
      1.65000000000000E-01
      0.00000000000000E+00   0.00000000000000E+00   0.00000000000000E+00   0.00000000000000E+00  -1.86453833907087E-13
     -7.58188529653538E-12  -7.76833913044247E-12  -1.18853007846612E-17   6.60000000000000E-02   6.60000000000000E-02
      0.00000000000000E+00   0.00000000000000E+00   0.00000000000000E+00   0.00000000000000E+00   0.00000000000000E+00
      5.01074468853679E-18   3.00000000000000E-01   3.00000000000000E-01   0.00000000000000E+00   0.00000000000000E+00
      7.76163283332258E-12   6.70629711989092E-15   7.76833913044247E-12   1.60714346680519E-17   4.00000000000000E-02
      4.00000000000000E-02   0.00000000000000E+00   0.00000000000000E+00   0.00000000000000E+00   0.00000000000000E+00
      0.00000000000000E+00  -9.19687857192749E-18
      1.80000000000000E-01
      0.00000000000000E+00   0.00000000000000E+00   0.00000000000000E+00   0.00000000000000E+00  -1.88346595978393E-13
     -7.18674555303735E-12  -7.37509214901575E-12  -1.19508965325562E-17   7.20000000000000E-02   7.20000000000000E-02
      0.00000000000000E+00   0.00000000000000E+00   0.00000000000000E+00   0.00000000000000E+00   0.00000000000000E+00
      6.71500251331005E-18   3.00000000000000E-01   3.00000000000000E-01   0.00000000000000E+00   0.00000000000000E+00
      7.36842841080255E-12   6.66373821319010E-15   7.37509214901574E-12   1.60071970511741E-17   4.00000000000000E-02
      4.00000000000000E-02   0.00000000000000E+00   0.00000000000000E+00   0.00000000000000E+00   0.00000000000000E+00
      0.00000000000000E+00  -1.07713030319280E-17
      1.95000000000000E-01
      0.00000000000000E+00   0.00000000000000E+00   0.00000000000000E+00   0.00000000000000E+00  -1.90244901572739E-13
     -6.84603801808239E-12  -7.03628291965513E-12  -1.20164470821222E-17   7.80000000000000E-02   7.80000000000000E-02
      0.00000000000000E+00   0.00000000000000E+00   0.00000000000000E+00   0.00000000000000E+00   0.00000000000000E+00
      8.41924198787295E-18   3.00000000000000E-01   3.00000000000000E-01   0.00000000000000E+00   0.00000000000000E+00
      7.02966194985715E-12   6.62096979797416E-15   7.03628291965513E-12   1.59429509348418E-17   4.00000000000000E-02
      4.00000000000000E-02   0.00000000000000E+00   0.00000000000000E+00   0.00000000000000E+00   0.00000000000000E+00
      0.00000000000000E+00  -1.23457458405925E-17
      2.10000000000000E-01
      0.00000000000000E+00   0.00000000000000E+00   0.00000000000000E+00   0.00000000000000E+00  -1.92148660885022E-13
     -6.55458175440973E-12  -6.74673041529475E-12  -1.20819537735937E-17   8.40000000000000E-02   8.40000000000000E-02
      0.00000000000000E+00   0.00000000000000E+00   0.00000000000000E+00   0.00000000000000E+00   0.00000000000000E+00
      1.01234638858740E-17   3.00000000000000E-01   3.00000000000000E-01   0.00000000000000E+00   0.00000000000000E+00
      6.74015239392002E-12   6.57802137473809E-15   6.74673041529476E-12   1.58786961122558E-17   4.00000000000000E-02
      4.00000000000000E-02   0.00000000000000E+00   0.00000000000000E+00   0.00000000000000E+00   0.00000000000000E+00
      0.00000000000000E+00  -1.39202062245361E-17
      2.25000000000000E-01
      0.00000000000000E+00   0.00000000000000E+00   0.00000000000000E+00   0.00000000000000E+00  -1.94057785423927E-13
     -6.30784983425900E-12  -6.50190761968293E-12  -1.21474179025739E-17   9.00000000000000E-02   9.00000000000000E-02
      0.00000000000000E+00   0.00000000000000E+00   0.00000000000000E+00   0.00000000000000E+00   0.00000000000000E+00
      1.18276689611075E-17   3.00000000000000E-01   3.00000000000000E-01   0.00000000000000E+00   0.00000000000000E+00
      6.49537270066922E-12   6.53491901370583E-15   6.50190761968293E-12   1.58144323716563E-17   4.00000000000000E-02
      4.00000000000000E-02   0.00000000000000E+00   0.00000000000000E+00   0.00000000000000E+00   0.00000000000000E+00
      0.00000000000000E+00  -1.54946834301899E-17
      2.40000000000000E-01
      0.00000000000000E+00   0.00000000000000E+00   0.00000000000000E+00   0.00000000000000E+00  -1.95972188011425E-13
     -6.10192129966649E-12  -6.29789348767791E-12  -1.22128407216295E-17   9.60000000000000E-02   9.60000000000000E-02
      0.00000000000000E+00   0.00000000000000E+00   0.00000000000000E+00   0.00000000000000E+00   0.00000000000000E+00
      1.35318579484384E-17   3.00000000000000E-01   3.00000000000000E-01   0.00000000000000E+00   0.00000000000000E+00
      6.29140180187490E-12   6.49168580302088E-15   6.29789348767792E-12   1.57501594960736E-17   4.00000000000000E-02
      4.00000000000000E-02   0.00000000000000E+00   0.00000000000000E+00   0.00000000000000E+00   0.00000000000000E+00
      0.00000000000000E+00  -1.70691767228826E-17
      2.55000000000000E-01
      0.00000000000000E+00   0.00000000000000E+00   0.00000000000000E+00   0.00000000000000E+00  -1.97891782781170E-13
     -5.93343945724218E-12  -6.13133124002335E-12  -1.22782234418265E-17   1.02000000000000E-01   1.02000000000000E-01
      0.00000000000000E+00   0.00000000000000E+00   0.00000000000000E+00   0.00000000000000E+00   0.00000000000000E+00
      1.52360315646961E-17   3.00000000000000E-01   3.00000000000000E-01   0.00000000000000E+00   0.00000000000000E+00
      6.12488289784685E-12   6.44834217649723E-15   6.13133124002335E-12   1.56858772630799E-17   4.00000000000000E-02
      4.00000000000000E-02   0.00000000000000E+00   0.00000000000000E+00   0.00000000000000E+00   0.00000000000000E+00
      0.00000000000000E+00  -1.86436853859495E-17
      2.70000000000000E-01
      0.00000000000000E+00   0.00000000000000E+00   0.00000000000000E+00   0.00000000000000E+00  -1.99816485175857E-13
     -5.79957641781545E-12  -5.99939290299131E-12  -1.23435672342101E-17   1.08000000000000E-01   1.08000000000000E-01
      0.00000000000000E+00   0.00000000000000E+00   0.00000000000000E+00   0.00000000000000E+00   0.00000000000000E+00
      1.69401905095403E-17   3.00000000000000E-01   3.00000000000000E-01   0.00000000000000E+00   0.00000000000000E+00
      5.99298799676157E-12   6.40490622973661E-15   5.99939290299131E-12   1.56215854445419E-17   4.00000000000000E-02
      4.00000000000000E-02   0.00000000000000E+00   0.00000000000000E+00   0.00000000000000E+00   0.00000000000000E+00
      0.00000000000000E+00  -2.02182087198721E-17
      2.85000000000000E-01
      0.00000000000000E+00   0.00000000000000E+00   0.00000000000000E+00   0.00000000000000E+00  -2.01746211943575E-13
     -5.69800380070954E-12  -5.89975001265311E-12  -1.24088732312298E-17   1.14000000000000E-01   1.14000000000000E-01
      0.00000000000000E+00   0.00000000000000E+00   0.00000000000000E+00   0.00000000000000E+00   0.00000000000000E+00
      1.86443354662995E-17   3.00000000000000E-01   3.00000000000000E-01   0.00000000000000E+00   0.00000000000000E+00
      5.89338861864703E-12   6.36139400608234E-15   5.89975001265311E-12   1.55572838063720E-17   4.00000000000000E-02
      4.00000000000000E-02   0.00000000000000E+00   0.00000000000000E+00   0.00000000000000E+00   0.00000000000000E+00
      0.00000000000000E+00  -2.17927460414416E-17
      3.00000000000000E-01
      0.00000000000000E+00   0.00000000000000E+00   0.00000000000000E+00   0.00000000000000E+00  -2.03680881133159E-13
     -5.62686953286510E-12  -5.83055041399826E-12  -1.24741425281122E-17   1.20000000000000E-01   1.20000000000000E-01
      0.00000000000000E+00   0.00000000000000E+00   0.00000000000000E+00   0.00000000000000E+00   0.00000000000000E+00
      2.03484671027836E-17   3.00000000000000E-01   3.00000000000000E-01   0.00000000000000E+00   0.00000000000000E+00
      5.82423259426805E-12   6.31781973020621E-15   5.83055041399825E-12   1.54929721082788E-17   4.00000000000000E-02
      4.00000000000000E-02   0.00000000000000E+00   0.00000000000000E+00   0.00000000000000E+00   0.00000000000000E+00
      0.00000000000000E+00  -2.33672966829502E-17
      3.15000000000000E-01
      0.00000000000000E+00   0.00000000000000E+00   0.00000000000000E+00   0.00000000000000E+00  -2.05620412088592E-13
     -5.58478068436602E-12  -5.79040109645461E-12  -1.25393761841828E-17   1.26000000000000E-01   1.26000000000000E-01
      0.00000000000000E+00   0.00000000000000E+00   0.00000000000000E+00   0.00000000000000E+00   0.00000000000000E+00
      2.20525860720730E-17   3.00000000000000E-01   3.00000000000000E-01   0.00000000000000E+00   0.00000000000000E+00
      5.78412690042582E-12   6.27419602878770E-15   5.79040109645461E-12   1.54286501035139E-17   4.00000000000000E-02
      4.00000000000000E-02   0.00000000000000E+00   0.00000000000000E+00   0.00000000000000E+00   0.00000000000000E+00
      0.00000000000000E+00  -2.49418599914042E-17
      3.30000000000000E-01
      0.00000000000000E+00   0.00000000000000E+00   0.00000000000000E+00   0.00000000000000E+00  -2.07564725442413E-13
     -5.57079229374561E-12  -5.77835701918802E-12  -1.26045752241399E-17   1.32000000000000E-01   1.32000000000000E-01
      0.00000000000000E+00   0.00000000000000E+00   0.00000000000000E+00   0.00000000000000E+00   0.00000000000000E+00
      2.37566930132840E-17   3.00000000000000E-01   3.00000000000000E-01   0.00000000000000E+00   0.00000000000000E+00
      5.77212648508114E-12   6.23053410687824E-15   5.77835701918801E-12   1.53643175386165E-17   4.00000000000000E-02
      4.00000000000000E-02   0.00000000000000E+00   0.00000000000000E+00   0.00000000000000E+00   0.00000000000000E+00
      0.00000000000000E+00  -2.65164353277606E-17
      3.45000000000000E-01
      0.00000000000000E+00   0.00000000000000E+00   0.00000000000000E+00   0.00000000000000E+00  -2.09513743108165E-13
     -5.58440214888132E-12  -5.79391589198948E-12  -1.26697406392809E-17   1.38000000000000E-01   1.38000000000000E-01
      0.00000000000000E+00   0.00000000000000E+00   0.00000000000000E+00   0.00000000000000E+00   0.00000000000000E+00
      2.54607885523131E-17   3.00000000000000E-01   3.00000000000000E-01   0.00000000000000E+00   0.00000000000000E+00
      5.78772904805474E-12   6.18684393474348E-15   5.79391589198948E-12   1.52999741531528E-17   4.00000000000000E-02
      4.00000000000000E-02   0.00000000000000E+00   0.00000000000000E+00   0.00000000000000E+00   0.00000000000000E+00
      0.00000000000000E+00  -2.80910220661850E-17
      3.60000000000000E-01
      0.00000000000000E+00   0.00000000000000E+00   0.00000000000000E+00   0.00000000000000E+00  -2.11467388271855E-13
     -5.62555150176163E-12  -5.83701889003348E-12  -1.27348733886830E-17   1.44000000000000E-01   1.44000000000000E-01
      0.00000000000000E+00   0.00000000000000E+00   0.00000000000000E+00   0.00000000000000E+00   0.00000000000000E+00
      2.71648733025610E-17   3.00000000000000E-01   3.00000000000000E-01   0.00000000000000E+00   0.00000000000000E+00
      5.83087575566657E-12   6.14313436691763E-15   5.83701889003349E-12   1.52356196794513E-17   4.00000000000000E-02
      4.00000000000000E-02   0.00000000000000E+00   0.00000000000000E+00   0.00000000000000E+00   0.00000000000000E+00
      0.00000000000000E+00  -2.96656195933294E-17
      3.75000000000000E-01
      0.00000000000000E+00   0.00000000000000E+00   0.00000000000000E+00   0.00000000000000E+00  -2.13425585382426E-13
     -5.69463170826445E-12  -5.90805729364688E-12  -1.27999744003414E-17   1.50000000000000E-01   1.50000000000000E-01
      0.00000000000000E+00   0.00000000000000E+00   0.00000000000000E+00   0.00000000000000E+00   0.00000000000000E+00
      2.88689478656374E-17   3.00000000000000E-01   3.00000000000000E-01   0.00000000000000E+00   0.00000000000000E+00
      5.90195788036007E-12   6.09941328680935E-15   5.90805729364688E-12   1.51712538423324E-17   4.00000000000000E-02
      4.00000000000000E-02   0.00000000000000E+00   0.00000000000000E+00   0.00000000000000E+00   0.00000000000000E+00
      0.00000000000000E+00  -3.12402273076284E-17
      3.90000000000000E-01
      0.00000000000000E+00   0.00000000000000E+00   0.00000000000000E+00   0.00000000000000E+00  -2.15388260141221E-13
     -5.79249679650793E-12  -6.00788505664915E-12  -1.28650445722646E-17   1.56000000000000E-01   1.56000000000000E-01
      0.00000000000000E+00   0.00000000000000E+00   0.00000000000000E+00   0.00000000000000E+00   0.00000000000000E+00
      3.05730128320476E-17   3.00000000000000E-01   3.00000000000000E-01   0.00000000000000E+00   0.00000000000000E+00
      6.00182936894127E-12   6.05568770788374E-15   6.00788505664915E-12   1.51068763588316E-17   4.00000000000000E-02
      4.00000000000000E-02   0.00000000000000E+00   0.00000000000000E+00   0.00000000000000E+00   0.00000000000000E+00
      0.00000000000000E+00  -3.28148446186146E-17
      4.05000000000000E-01
      0.00000000000000E+00   0.00000000000000E+00   0.00000000000000E+00   0.00000000000000E+00  -2.17355339490444E-13
     -5.92048197975178E-12  -6.13783731924222E-12  -1.29300847735296E-17   1.62000000000000E-01   1.62000000000000E-01
      0.00000000000000E+00   0.00000000000000E+00   0.00000000000000E+00   0.00000000000000E+00   0.00000000000000E+00
      3.22770687818625E-17   3.00000000000000E-01   3.00000000000000E-01   0.00000000000000E+00   0.00000000000000E+00
      6.13182535536544E-12   6.01196387677763E-15   6.13783731924222E-12   1.50424869379158E-17   4.00000000000000E-02
      4.00000000000000E-02   0.00000000000000E+00   0.00000000000000E+00   0.00000000000000E+00   0.00000000000000E+00
      0.00000000000000E+00  -3.43894709462487E-17
      4.20000000000000E-01
      0.00000000000000E+00   0.00000000000000E+00   0.00000000000000E+00   0.00000000000000E+00  -2.19326751600606E-13
     -6.08042814160247E-12  -6.29975489320307E-12  -1.29950958452982E-17   1.68000000000000E-01   1.68000000000000E-01
      0.00000000000000E+00   0.00000000000000E+00   0.00000000000000E+00   0.00000000000000E+00   0.00000000000000E+00
      3.39811162853730E-17   3.00000000000000E-01   3.00000000000000E-01   0.00000000000000E+00   0.00000000000000E+00
      6.29378664586076E-12   5.96824734230005E-15   6.29975489320306E-12   1.49780852801927E-17   4.00000000000000E-02
      4.00000000000000E-02   0.00000000000000E+00   0.00000000000000E+00   0.00000000000000E+00   0.00000000000000E+00
      0.00000000000000E+00  -3.59641057202674E-17
      4.35000000000000E-01
      0.00000000000000E+00   0.00000000000000E+00   0.00000000000000E+00   0.00000000000000E+00  -2.21302425856964E-13
     -6.27471233262263E-12  -6.49601475847959E-12  -1.30600786017956E-17   1.74000000000000E-01   1.74000000000000E-01
      0.00000000000000E+00   0.00000000000000E+00   0.00000000000000E+00   0.00000000000000E+00   0.00000000000000E+00
      3.56851559037287E-17   3.00000000000000E-01   3.00000000000000E-01   0.00000000000000E+00   0.00000000000000E+00
      6.49009021543353E-12   5.92454304606004E-15   6.49601475847959E-12   1.49136710776113E-17   4.00000000000000E-02
      4.00000000000000E-02   0.00000000000000E+00   0.00000000000000E+00   0.00000000000000E+00   0.00000000000000E+00
      0.00000000000000E+00  -3.75387483795444E-17
      4.50000000000000E-01
      0.00000000000000E+00   0.00000000000000E+00   0.00000000000000E+00   0.00000000000000E+00  -2.23282292844954E-13
     -6.50628432783397E-12  -6.72956662067892E-12  -1.31250338312528E-17   1.80000000000000E-01   1.80000000000000E-01
      0.00000000000000E+00   0.00000000000000E+00   0.00000000000000E+00   0.00000000000000E+00   0.00000000000000E+00
      3.73891881895641E-17   3.00000000000000E-01   3.00000000000000E-01   0.00000000000000E+00   0.00000000000000E+00
      6.72368576531105E-12   5.88085536786840E-15   6.72956662067892E-12   1.48492440131541E-17   4.00000000000000E-02
      4.00000000000000E-02   0.00000000000000E+00   0.00000000000000E+00   0.00000000000000E+00   0.00000000000000E+00
      0.00000000000000E+00  -3.91133983714654E-17
      4.65000000000000E-01
      0.00000000000000E+00   0.00000000000000E+00   0.00000000000000E+00   0.00000000000000E+00  -2.25266284334595E-13
     -6.77870930436922E-12  -7.00397558870382E-12  -1.31899622968153E-17   1.86000000000000E-01   1.86000000000000E-01
      0.00000000000000E+00   0.00000000000000E+00   0.00000000000000E+00   0.00000000000000E+00   0.00000000000000E+00
      3.90932136876112E-17   3.00000000000000E-01   3.00000000000000E-01   0.00000000000000E+00   0.00000000000000E+00
      6.99813840052240E-12   5.83718818141929E-15   7.00397558870382E-12   1.47848037605205E-17   4.00000000000000E-02
      4.00000000000000E-02   0.00000000000000E+00   0.00000000000000E+00   0.00000000000000E+00   0.00000000000000E+00
      0.00000000000000E+00  -4.06880551513164E-17
      4.80000000000000E-01
      0.00000000000000E+00   0.00000000000000E+00   0.00000000000000E+00   0.00000000000000E+00  -2.27254333263968E-13
     -7.09621670713197E-12  -7.32347104039594E-12  -1.32548647374164E-17   1.92000000000000E-01   1.92000000000000E-01
      0.00000000000000E+00   0.00000000000000E+00   0.00000000000000E+00   0.00000000000000E+00   0.00000000000000E+00
      4.07972329353005E-17   3.00000000000000E-01   3.00000000000000E-01   0.00000000000000E+00   0.00000000000000E+00
      7.31767749549022E-12   5.79354490572457E-15   7.32347104039594E-12   1.47203499837990E-17   4.00000000000000E-02
      4.00000000000000E-02   0.00000000000000E+00   0.00000000000000E+00   0.00000000000000E+00   0.00000000000000E+00
      0.00000000000000E+00  -4.22627181816832E-17
      4.95000000000000E-01
      0.00000000000000E+00   0.00000000000000E+00   0.00000000000000E+00   0.00000000000000E+00  -2.29246373721703E-13
     -7.46375537793047E-12  -7.69300175165217E-12  -1.33197418686201E-17   1.98000000000000E-01   1.98000000000000E-01
      0.00000000000000E+00   0.00000000000000E+00   0.00000000000000E+00   0.00000000000000E+00   0.00000000000000E+00
      4.25012464633510E-17   3.00000000000000E-01   3.00000000000000E-01   0.00000000000000E+00   0.00000000000000E+00
      7.68725182312484E-12   5.74992852732872E-15   7.69300175165217E-12   1.46558823371307E-17   4.00000000000000E-02
      4.00000000000000E-02   0.00000000000000E+00   0.00000000000000E+00   0.00000000000000E+00   0.00000000000000E+00
      0.00000000000000E+00  -4.38373869318617E-17
      5.10000000000000E-01
      0.00000000000000E+00   0.00000000000000E+00   0.00000000000000E+00   0.00000000000000E+00  -2.31242340928520E-13
     -7.88705503012479E-12  -8.11829737105331E-12  -1.33845943834322E-17   2.04000000000000E-01   2.04000000000000E-01
      0.00000000000000E+00   0.00000000000000E+00   0.00000000000000E+00   0.00000000000000E+00   0.00000000000000E+00
      4.42052547963505E-17   3.00000000000000E-01   3.00000000000000E-01   0.00000000000000E+00   0.00000000000000E+00
      8.11259102941318E-12   5.70634164011541E-15   8.11829737105330E-12   1.45914004643599E-17   4.00000000000000E-02
      4.00000000000000E-02   0.00000000000000E+00   0.00000000000000E+00   0.00000000000000E+00   0.00000000000000E+00
      0.00000000000000E+00  -4.54120608772782E-17
      5.25000000000000E-01
      0.00000000000000E+00   0.00000000000000E+00   0.00000000000000E+00   0.00000000000000E+00  -2.33242171217895E-13
     -8.37269415609180E-12  -8.60593632730970E-12  -1.34494229530815E-17   2.10000000000000E-01   2.10000000000000E-01
      0.00000000000000E+00   0.00000000000000E+00   0.00000000000000E+00   0.00000000000000E+00   0.00000000000000E+00
      4.59092584533262E-17   3.00000000000000E-01   3.00000000000000E-01   0.00000000000000E+00   0.00000000000000E+00
      8.60027354084879E-12   5.66278646090722E-15   8.60593632730970E-12   1.45269039986748E-17   4.00000000000000E-02
      4.00000000000000E-02   0.00000000000000E+00   0.00000000000000E+00   0.00000000000000E+00   0.00000000000000E+00
      0.00000000000000E+00  -4.69867394989195E-17
      5.40000000000000E-01
      0.00000000000000E+00   0.00000000000000E+00   0.00000000000000E+00   0.00000000000000E+00  -2.35245802015837E-13
     -8.92817445906794E-12  -9.16342026108378E-12  -1.35142282277724E-17   2.16000000000000E-01   2.16000000000000E-01
      0.00000000000000E+00   0.00000000000000E+00   0.00000000000000E+00   0.00000000000000E+00   0.00000000000000E+00
      4.76132579483080E-17   3.00000000000000E-01   3.00000000000000E-01   0.00000000000000E+00   0.00000000000000E+00
      9.15780099623429E-12   5.61926484948086E-15   9.16342026108377E-12   1.44623925622342E-17   4.00000000000000E-02
      4.00000000000000E-02   0.00000000000000E+00   0.00000000000000E+00   0.00000000000000E+00   0.00000000000000E+00
      0.00000000000000E+00  -4.85614222827697E-17
      5.55000000000000E-01
      0.00000000000000E+00   0.00000000000000E+00   0.00000000000000E+00   0.00000000000000E+00  -2.37253171819823E-13