DF-ISE text

Info {
  version   = 1.0
  type      = xyplot
  datasets  = [
    "time"
    "source OuterVoltage" "source InnerVoltage" "source QuasiFermiPotential" "source DisplacementCurrent" "source eCurrent"
    "source hCurrent" "source TotalCurrent" "source Charge" "topGate OuterVoltage" "topGate InnerVoltage"
    "topGate QuasiFermiPotential" "topGate DisplacementCurrent" "topGate eCurrent" "topGate hCurrent" "topGate TotalCurrent"
    "topGate Charge" "drain OuterVoltage" "drain InnerVoltage" "drain QuasiFermiPotential" "drain DisplacementCurrent"
    "drain eCurrent" "drain hCurrent" "drain TotalCurrent" "drain Charge" "bottomGate OuterVoltage"
    "bottomGate InnerVoltage" "bottomGate QuasiFermiPotential" "bottomGate DisplacementCurrent" "bottomGate eCurrent" "bottomGate hCurrent"
    "bottomGate TotalCurrent" "bottomGate Charge" ]
  functions = [
    Time
    OuterVoltage InnerVoltage QuasiFermiPotential DisplacementCurrent eCurrent
    hCurrent TotalCurrent Charge OuterVoltage InnerVoltage
    QuasiFermiPotential DisplacementCurrent eCurrent hCurrent TotalCurrent
    Charge OuterVoltage InnerVoltage QuasiFermiPotential DisplacementCurrent
    eCurrent hCurrent TotalCurrent Charge OuterVoltage
    InnerVoltage QuasiFermiPotential DisplacementCurrent eCurrent hCurrent
    TotalCurrent Charge ]
}

Data {
      1.50000000000000E-02
      0.00000000000000E+00   0.00000000000000E+00   0.00000000000000E+00   0.00000000000000E+00  -2.31900331598254E-13
     -2.02248350079528E-11  -2.04567353395511E-11  -1.34061925334827E-17   6.00000000000000E-03   6.00000000000000E-03
      0.00000000000000E+00   0.00000000000000E+00   0.00000000000000E+00   0.00000000000000E+00   0.00000000000000E+00
     -6.41932814017153E-17   2.70000000000000E-01   2.70000000000000E-01   0.00000000000000E+00   0.00000000000000E+00
      2.04514783934870E-11   5.25694606407044E-15   2.04567353395511E-11   1.39241463614936E-17   2.40000000000000E-01
      2.40000000000000E-01   0.00000000000000E+00   0.00000000000000E+00   0.00000000000000E+00   0.00000000000000E+00
      0.00000000000000E+00   6.36753275737043E-17
      3.00000000000000E-02
      0.00000000000000E+00   0.00000000000000E+00   0.00000000000000E+00   0.00000000000000E+00  -2.33901999274491E-13
     -1.81026378658523E-11  -1.83365398651268E-11  -1.34710132726840E-17   1.20000000000000E-02   1.20000000000000E-02
      0.00000000000000E+00   0.00000000000000E+00   0.00000000000000E+00   0.00000000000000E+00   0.00000000000000E+00
     -6.24891940292124E-17   2.70000000000000E-01   2.70000000000000E-01   0.00000000000000E+00   0.00000000000000E+00
      1.83313256862485E-11   5.21417887831513E-15   1.83365398651268E-11   1.38594746432834E-17   2.40000000000000E-01
      2.40000000000000E-01   0.00000000000000E+00   0.00000000000000E+00   0.00000000000000E+00   0.00000000000000E+00
      0.00000000000000E+00   6.21007326586130E-17
      4.50000000000000E-02
      0.00000000000000E+00   0.00000000000000E+00   0.00000000000000E+00   0.00000000000000E+00  -2.35907383563042E-13
     -1.62281486836089E-11  -1.64640560671720E-11  -1.35358109284160E-17   1.80000000000000E-02   1.80000000000000E-02
      0.00000000000000E+00   0.00000000000000E+00   0.00000000000000E+00   0.00000000000000E+00   0.00000000000000E+00
     -6.07851083939882E-17   2.70000000000000E-01   2.70000000000000E-01   0.00000000000000E+00   0.00000000000000E+00
      1.64588845875008E-11   5.17147967111252E-15   1.64640560671720E-11   1.37947833147524E-17   2.40000000000000E-01
      2.40000000000000E-01   0.00000000000000E+00   0.00000000000000E+00   0.00000000000000E+00   0.00000000000000E+00
      0.00000000000000E+00   6.05261360076518E-17
      6.00000000000000E-02
      0.00000000000000E+00   0.00000000000000E+00   0.00000000000000E+00   0.00000000000000E+00  -2.37916431219164E-13
     -1.45746356718342E-11  -1.48125521030534E-11  -1.36005861240430E-17   2.40000000000000E-02   2.40000000000000E-02
      0.00000000000000E+00   0.00000000000000E+00   0.00000000000000E+00   0.00000000000000E+00   0.00000000000000E+00
     -5.90810239170003E-17   2.70000000000000E-01   2.70000000000000E-01   0.00000000000000E+00   0.00000000000000E+00
      1.48074232535176E-11   5.12884953579082E-15   1.48125521030534E-11   1.37300718413421E-17   2.40000000000000E-01
      2.40000000000000E-01   0.00000000000000E+00   0.00000000000000E+00   0.00000000000000E+00   0.00000000000000E+00
      0.00000000000000E+00   5.89515381997012E-17
      7.50000000000000E-02
      0.00000000000000E+00   0.00000000000000E+00   0.00000000000000E+00   0.00000000000000E+00  -2.39929088970629E-13
     -1.31178951248612E-11  -1.33578242138318E-11  -1.36653394635494E-17   3.00000000000000E-02   3.00000000000000E-02
      0.00000000000000E+00   0.00000000000000E+00   0.00000000000000E+00   0.00000000000000E+00   0.00000000000000E+00
     -5.73769400205379E-17   2.70000000000000E-01   2.70000000000000E-01   0.00000000000000E+00   0.00000000000000E+00
      1.33527379243073E-11   5.08628952455210E-15   1.33578242138318E-11   1.36653396717580E-17   2.40000000000000E-01
      2.40000000000000E-01   0.00000000000000E+00   0.00000000000000E+00   0.00000000000000E+00   0.00000000000000E+00
      0.00000000000000E+00   5.73769398123293E-17
      9.00000000000000E-02
      0.00000000000000E+00   0.00000000000000E+00   0.00000000000000E+00   0.00000000000000E+00  -2.41945303631530E-13
     -1.18360652068020E-11  -1.20780105104335E-11  -1.37300715322052E-17   3.60000000000000E-02   3.60000000000000E-02
      0.00000000000000E+00   0.00000000000000E+00   0.00000000000000E+00   0.00000000000000E+00   0.00000000000000E+00
     -5.56728561275821E-17   2.70000000000000E-01   2.70000000000000E-01   0.00000000000000E+00   0.00000000000000E+00
      1.20729667097647E-11   5.04380066882185E-15   1.20780105104335E-11   1.36005862373576E-17   2.40000000000000E-01
      2.40000000000000E-01   0.00000000000000E+00   0.00000000000000E+00   0.00000000000000E+00   0.00000000000000E+00
      0.00000000000000E+00   5.58023414224297E-17
      1.05000000000000E-01
      0.00000000000000E+00   0.00000000000000E+00   0.00000000000000E+00   0.00000000000000E+00  -2.43965022198321E-13
     -1.07094490541727E-11  -1.09534140763710E-11  -1.37947828972060E-17   4.20000000000000E-02   4.20000000000000E-02
      0.00000000000000E+00   0.00000000000000E+00   0.00000000000000E+00   0.00000000000000E+00   0.00000000000000E+00
     -5.39687716611678E-17   2.70000000000000E-01   2.70000000000000E-01   0.00000000000000E+00   0.00000000000000E+00
      1.09484126923840E-11   5.00138398700666E-15   1.09534140763710E-11   1.35358109515164E-17   2.40000000000000E-01
      2.40000000000000E-01   0.00000000000000E+00   0.00000000000000E+00   0.00000000000000E+00   0.00000000000000E+00
      0.00000000000000E+00   5.42277436068574E-17
      1.20000000000000E-01
      0.00000000000000E+00   0.00000000000000E+00   0.00000000000000E+00   0.00000000000000E+00  -2.45988191930807E-13
     -9.72034713525785E-12  -9.96633532718865E-12  -1.38594741082914E-17   4.80000000000000E-02   4.80000000000000E-02
      0.00000000000000E+00   0.00000000000000E+00   0.00000000000000E+00   0.00000000000000E+00   0.00000000000000E+00
     -5.22646860437459E-17   2.70000000000000E-01   2.70000000000000E-01   0.00000000000000E+00   0.00000000000000E+00
      9.96137628668749E-12   4.95904050115506E-15   9.96633532718864E-12   1.34710132089721E-17   2.40000000000000E-01
      2.40000000000000E-01   0.00000000000000E+00   0.00000000000000E+00   0.00000000000000E+00   0.00000000000000E+00
      0.00000000000000E+00   5.26531469430651E-17
      1.35000000000000E-01
      0.00000000000000E+00   0.00000000000000E+00   0.00000000000000E+00   0.00000000000000E+00  -2.48014760419692E-13
     -8.85289879113297E-12  -9.10091355155266E-12  -1.39241456983386E-17   5.40000000000000E-02   5.40000000000000E-02
      0.00000000000000E+00   0.00000000000000E+00   0.00000000000000E+00   0.00000000000000E+00   0.00000000000000E+00
     -5.05605986965451E-17   2.70000000000000E-01   2.70000000000000E-01   0.00000000000000E+00   0.00000000000000E+00
      9.09599678030952E-12   4.91677124313134E-15   9.10091355155265E-12   1.34061923851441E-17   2.40000000000000E-01
      2.40000000000000E-01   0.00000000000000E+00   0.00000000000000E+00   0.00000000000000E+00   0.00000000000000E+00
      0.00000000000000E+00   5.10785520097397E-17
      1.50000000000000E-01
      0.00000000000000E+00   0.00000000000000E+00   0.00000000000000E+00   0.00000000000000E+00  -2.50044675641935E-13
     -8.09293286799802E-12  -8.34297754363995E-12  -1.39887981839365E-17   6.00000000000000E-02   6.00000000000000E-02
      0.00000000000000E+00   0.00000000000000E+00   0.00000000000000E+00   0.00000000000000E+00   0.00000000000000E+00
     -4.88565090389320E-17   2.70000000000000E-01   2.70000000000000E-01   0.00000000000000E+00   0.00000000000000E+00
      8.33810296637161E-12   4.87457726834006E-15   8.34297754363995E-12   1.33413478354285E-17   2.40000000000000E-01
      2.40000000000000E-01   0.00000000000000E+00   0.00000000000000E+00   0.00000000000000E+00   0.00000000000000E+00
      0.00000000000000E+00   4.95039593874400E-17
      1.65000000000000E-01
      0.00000000000000E+00   0.00000000000000E+00   0.00000000000000E+00   0.00000000000000E+00  -2.52077886005481E-13
     -7.42782733530264E-12  -7.67990522130813E-12  -1.40534320659371E-17   6.60000000000000E-02   6.60000000000000E-02
      0.00000000000000E+00   0.00000000000000E+00   0.00000000000000E+00   0.00000000000000E+00   0.00000000000000E+00
     -4.71524164877690E-17   2.70000000000000E-01   2.70000000000000E-01   0.00000000000000E+00   0.00000000000000E+00
      7.67507276164541E-12   4.83245966271062E-15   7.67990522130812E-12   1.32764788944674E-17   2.40000000000000E-01
      2.40000000000000E-01   0.00000000000000E+00   0.00000000000000E+00   0.00000000000000E+00   0.00000000000000E+00
      0.00000000000000E+00   4.79293696592387E-17
      1.80000000000000E-01
      0.00000000000000E+00   0.00000000000000E+00   0.00000000000000E+00   0.00000000000000E+00  -2.54114340384763E-13
     -6.84637776944553E-12  -7.10049210983029E-12  -1.41180478299880E-17   7.20000000000000E-02   7.20000000000000E-02
      0.00000000000000E+00   0.00000000000000E+00   0.00000000000000E+00   0.00000000000000E+00   0.00000000000000E+00
     -4.54483204567683E-17   2.70000000000000E-01   2.70000000000000E-01   0.00000000000000E+00   0.00000000000000E+00
      7.09570169027735E-12   4.79041955294351E-15   7.10049210983029E-12   1.32115848753906E-17   2.40000000000000E-01
      2.40000000000000E-01   0.00000000000000E+00   0.00000000000000E+00   0.00000000000000E+00   0.00000000000000E+00
      0.00000000000000E+00   4.63547834113657E-17
      1.95000000000000E-01
      0.00000000000000E+00   0.00000000000000E+00   0.00000000000000E+00   0.00000000000000E+00  -2.56153988147060E-13
     -6.33867456874084E-12  -6.59482855688790E-12  -1.41826459470451E-17   7.80000000000000E-02   7.80000000000000E-02
      0.00000000000000E+00   0.00000000000000E+00   0.00000000000000E+00   0.00000000000000E+00   0.00000000000000E+00
     -4.37442203558419E-17   2.70000000000000E-01   2.70000000000000E-01   0.00000000000000E+00   0.00000000000000E+00
      6.59008009877480E-12   4.74845811310567E-15   6.59482855688790E-12   1.31466650690293E-17   2.40000000000000E-01
      2.40000000000000E-01   0.00000000000000E+00   0.00000000000000E+00   0.00000000000000E+00   0.00000000000000E+00
      0.00000000000000E+00   4.47802012338577E-17
      2.10000000000000E-01
      0.00000000000000E+00   0.00000000000000E+00   0.00000000000000E+00   0.00000000000000E+00  -2.58196779171837E-13
     -5.89598875216231E-12  -6.15418553133415E-12  -1.42472268738663E-17   8.40000000000000E-02   8.40000000000000E-02
      0.00000000000000E+00   0.00000000000000E+00   0.00000000000000E+00   0.00000000000000E+00   0.00000000000000E+00
     -4.20401155904457E-17   2.70000000000000E-01   2.70000000000000E-01   0.00000000000000E+00   0.00000000000000E+00
      6.14947895476169E-12   4.70657657245639E-15   6.15418553133415E-12   1.30817187430993E-17   2.40000000000000E-01
      2.40000000000000E-01   0.00000000000000E+00   0.00000000000000E+00   0.00000000000000E+00   0.00000000000000E+00
      0.00000000000000E+00   4.32056237212127E-17
      2.25000000000000E-01
      0.00000000000000E+00   0.00000000000000E+00   0.00000000000000E+00   0.00000000000000E+00  -2.60242663862220E-13
     -5.51066618226708E-12  -5.77090884612930E-12  -1.43117910534885E-17   9.00000000000000E-02   9.00000000000000E-02
      0.00000000000000E+00   0.00000000000000E+00   0.00000000000000E+00   0.00000000000000E+00   0.00000000000000E+00
     -4.03360055609171E-17   2.70000000000000E-01   2.70000000000000E-01   0.00000000000000E+00   0.00000000000000E+00
      5.76624406991097E-12   4.66477621832334E-15   5.77090884612929E-12   1.30167451413544E-17   2.40000000000000E-01
      2.40000000000000E-01   0.00000000000000E+00   0.00000000000000E+00   0.00000000000000E+00   0.00000000000000E+00
      0.00000000000000E+00   4.16310514730512E-17
      2.40000000000000E-01
      0.00000000000000E+00   0.00000000000000E+00   0.00000000000000E+00   0.00000000000000E+00  -2.62291593150507E-13
     -5.17603004190663E-12  -5.43832163505714E-12  -1.43763389156857E-17   9.60000000000000E-02   9.60000000000000E-02
      0.00000000000000E+00   0.00000000000000E+00   0.00000000000000E+00   0.00000000000000E+00   0.00000000000000E+00
     -3.86318896618053E-17   2.70000000000000E-01   2.70000000000000E-01   0.00000000000000E+00   0.00000000000000E+00
      5.43369857665364E-12   4.62305840350291E-15   5.43832163505715E-12   1.29517434827065E-17   2.40000000000000E-01
      2.40000000000000E-01   0.00000000000000E+00   0.00000000000000E+00   0.00000000000000E+00   0.00000000000000E+00
      0.00000000000000E+00   4.00564850947846E-17
      2.55000000000000E-01
      0.00000000000000E+00   0.00000000000000E+00   0.00000000000000E+00   0.00000000000000E+00  -2.64343518497167E-13
     -4.88629138497783E-12  -5.15063490347500E-12  -1.44408708774123E-17   1.02000000000000E-01   1.02000000000000E-01
      0.00000000000000E+00   0.00000000000000E+00   0.00000000000000E+00   0.00000000000000E+00   0.00000000000000E+00
     -3.69277672811930E-17   2.70000000000000E-01   2.70000000000000E-01   0.00000000000000E+00   0.00000000000000E+00
      5.14605347892638E-12   4.58142454860885E-15   5.15063490347499E-12   1.28867129603126E-17   2.40000000000000E-01
      2.40000000000000E-01   0.00000000000000E+00   0.00000000000000E+00   0.00000000000000E+00   0.00000000000000E+00
      0.00000000000000E+00   3.84819251982928E-17
      2.70000000000000E-01
      0.00000000000000E+00   0.00000000000000E+00   0.00000000000000E+00   0.00000000000000E+00  -2.66398391884218E-13
     -4.63646757376804E-12  -4.90286596565226E-12  -1.45053873432288E-17   1.08000000000000E-01   1.08000000000000E-01
      0.00000000000000E+00   0.00000000000000E+00   0.00000000000000E+00   0.00000000000000E+00   0.00000000000000E+00
     -3.52236378000081E-17   2.70000000000000E-01   2.70000000000000E-01   0.00000000000000E+00   0.00000000000000E+00
      4.89832608950878E-12   4.53987614347623E-15   4.90286596565226E-12   1.28216527406260E-17   2.40000000000000E-01
      2.40000000000000E-01   0.00000000000000E+00   0.00000000000000E+00   0.00000000000000E+00   0.00000000000000E+00
      0.00000000000000E+00   3.69073724026110E-17
      2.85000000000000E-01
      0.00000000000000E+00   0.00000000000000E+00   0.00000000000000E+00   0.00000000000000E+00  -2.68456165802840E-13
     -4.42230840949717E-12  -4.69076457530001E-12  -1.45698887057137E-17   1.14000000000000E-01   1.14000000000000E-01
      0.00000000000000E+00   0.00000000000000E+00   0.00000000000000E+00   0.00000000000000E+00   0.00000000000000E+00
     -3.35195005913250E-17   2.70000000000000E-01   2.70000000000000E-01   0.00000000000000E+00   0.00000000000000E+00
      4.68626616055079E-12   4.49841474922832E-15   4.69076457530002E-12   1.27565619624112E-17   2.40000000000000E-01
      2.40000000000000E-01   0.00000000000000E+00   0.00000000000000E+00   0.00000000000000E+00   0.00000000000000E+00
      0.00000000000000E+00   3.53328273346275E-17
      3.00000000000000E-01
      0.00000000000000E+00   0.00000000000000E+00   0.00000000000000E+00   0.00000000000000E+00  -2.70516793235662E-13
     -4.24022975857111E-12  -4.51074655180678E-12  -1.46343753458591E-17   1.20000000000000E-01   1.20000000000000E-01
      0.00000000000000E+00   0.00000000000000E+00   0.00000000000000E+00   0.00000000000000E+00   0.00000000000000E+00
     -3.18153550196542E-17   2.70000000000000E-01   2.70000000000000E-01   0.00000000000000E+00   0.00000000000000E+00
      4.50628950980777E-12   4.45704199900773E-15   4.51074655180678E-12   1.26914397357205E-17   2.40000000000000E-01
      2.40000000000000E-01   0.00000000000000E+00   0.00000000000000E+00   0.00000000000000E+00   0.00000000000000E+00
      0.00000000000000E+00   3.37582906297928E-17
      3.15000000000000E-01
      0.00000000000000E+00   0.00000000000000E+00   0.00000000000000E+00   0.00000000000000E+00  -2.72580227632777E-13
     -4.08725447492259E-12  -4.35983470255537E-12  -1.46988476334535E-17   1.26000000000000E-01   1.26000000000000E-01
      0.00000000000000E+00   0.00000000000000E+00   0.00000000000000E+00   0.00000000000000E+00   0.00000000000000E+00
     -3.01112004402183E-17   2.70000000000000E-01   2.70000000000000E-01   0.00000000000000E+00   0.00000000000000E+00
      4.35541894295976E-12   4.41575959560463E-15   4.35983470255537E-12   1.26262851408296E-17   2.40000000000000E-01
      2.40000000000000E-01   0.00000000000000E+00   0.00000000000000E+00   0.00000000000000E+00   0.00000000000000E+00
      0.00000000000000E+00   3.21837629328422E-17
      3.30000000000000E-01
      0.00000000000000E+00   0.00000000000000E+00   0.00000000000000E+00   0.00000000000000E+00  -2.74646422883082E-13
     -3.96096041867670E-12  -4.23560684155978E-12  -1.47633059274498E-17   1.32000000000000E-01   1.32000000000000E-01
      0.00000000000000E+00   0.00000000000000E+00   0.00000000000000E+00   0.00000000000000E+00   0.00000000000000E+00
     -2.84070361982148E-17   2.70000000000000E-01   2.70000000000000E-01   0.00000000000000E+00   0.00000000000000E+00
      4.23123227224856E-12   4.37456931122151E-15   4.23560684155978E-12   1.25610972271329E-17   2.40000000000000E-01
      2.40000000000000E-01   0.00000000000000E+00   0.00000000000000E+00   0.00000000000000E+00   0.00000000000000E+00
      0.00000000000000E+00   3.06092448985317E-17
      3.45000000000000E-01
      0.00000000000000E+00   0.00000000000000E+00   0.00000000000000E+00   0.00000000000000E+00  -2.76715333279280E-13
     -3.85943537323347E-12  -4.13615070651275E-12  -1.48277505763211E-17   1.38000000000000E-01   1.38000000000000E-01
      0.00000000000000E+00   0.00000000000000E+00   0.00000000000000E+00   0.00000000000000E+00   0.00000000000000E+00
     -2.67028616280631E-17   2.70000000000000E-01   2.70000000000000E-01   0.00000000000000E+00   0.00000000000000E+00
      4.13181723352839E-12   4.33347298435954E-15   4.13615070651275E-12   1.24958750119941E-17   2.40000000000000E-01
      2.40000000000000E-01   0.00000000000000E+00   0.00000000000000E+00   0.00000000000000E+00   0.00000000000000E+00
      0.00000000000000E+00   2.90347371923901E-17
      3.60000000000000E-01
      0.00000000000000E+00   0.00000000000000E+00   0.00000000000000E+00   0.00000000000000E+00  -2.78786913475606E-13
     -3.78123866672749E-12  -4.06002558020310E-12  -1.48921819184029E-17   1.44000000000000E-01   1.44000000000000E-01
      0.00000000000000E+00   0.00000000000000E+00   0.00000000000000E+00   0.00000000000000E+00   0.00000000000000E+00
     -2.49986760526347E-17   2.70000000000000E-01   2.70000000000000E-01   0.00000000000000E+00   0.00000000000000E+00
      4.05573310768713E-12   4.29247251596605E-15   4.06002558020309E-12   1.24306174795514E-17   2.40000000000000E-01
      2.40000000000000E-01   0.00000000000000E+00   0.00000000000000E+00   0.00000000000000E+00   0.00000000000000E+00
      0.00000000000000E+00   2.74602404914861E-17
      3.75000000000000E-01
      0.00000000000000E+00   0.00000000000000E+00   0.00000000000000E+00   0.00000000000000E+00  -2.80861118441450E-13
     -3.72536930963915E-12  -4.00623042808060E-12  -1.49566002822237E-17   1.50000000000000E-01   1.50000000000000E-01
      0.00000000000000E+00   0.00000000000000E+00   0.00000000000000E+00   0.00000000000000E+00   0.00000000000000E+00
     -2.32944787824663E-17   2.70000000000000E-01   2.70000000000000E-01   0.00000000000000E+00   0.00000000000000E+00
      4.00197885821374E-12   4.25156986686493E-15   4.00623042808060E-12   1.23653235794759E-17   2.40000000000000E-01
      2.40000000000000E-01   0.00000000000000E+00   0.00000000000000E+00   0.00000000000000E+00   0.00000000000000E+00
      0.00000000000000E+00   2.58857554852141E-17
      3.90000000000000E-01
      0.00000000000000E+00   0.00000000000000E+00   0.00000000000000E+00   0.00000000000000E+00  -2.82937903404627E-13
     -3.69124046801150E-12  -3.97417837141612E-12  -1.50210059868242E-17   1.56000000000000E-01   1.56000000000000E-01
      0.00000000000000E+00   0.00000000000000E+00   0.00000000000000E+00   0.00000000000000E+00   0.00000000000000E+00
     -2.15902691149534E-17   2.70000000000000E-01   2.70000000000000E-01   0.00000000000000E+00   0.00000000000000E+00
      3.96996760436439E-12   4.21076705172757E-15   3.97417837141612E-12   1.22999922256790E-17   2.40000000000000E-01
      2.40000000000000E-01   0.00000000000000E+00   0.00000000000000E+00   0.00000000000000E+00   0.00000000000000E+00
      0.00000000000000E+00   2.43112828760986E-17
      4.05000000000000E-01
      0.00000000000000E+00   0.00000000000000E+00   0.00000000000000E+00   0.00000000000000E+00  -2.85017223789294E-13
     -3.67866010119400E-12  -3.96367732498330E-12  -1.50853993420639E-17   1.62000000000000E-01   1.62000000000000E-01
      0.00000000000000E+00   0.00000000000000E+00   0.00000000000000E+00   0.00000000000000E+00   0.00000000000000E+00
     -1.98860463335238E-17   2.70000000000000E-01   2.70000000000000E-01   0.00000000000000E+00   0.00000000000000E+00
      3.95950725884812E-12   4.17006613517645E-15   3.96367732498330E-12   1.22346222949694E-17   2.40000000000000E-01
      2.40000000000000E-01   0.00000000000000E+00   0.00000000000000E+00   0.00000000000000E+00   0.00000000000000E+00
      0.00000000000000E+00   2.27368233806183E-17
      4.20000000000000E-01
      0.00000000000000E+00   0.00000000000000E+00   0.00000000000000E+00   0.00000000000000E+00  -2.87099035143093E-13
     -3.68781760411190E-12  -3.97491663925499E-12  -1.51497806489183E-17   1.68000000000000E-01   1.68000000000000E-01
      0.00000000000000E+00   0.00000000000000E+00   0.00000000000000E+00   0.00000000000000E+00   0.00000000000000E+00
     -1.81818097067887E-17   2.70000000000000E-01   2.70000000000000E-01   0.00000000000000E+00   0.00000000000000E+00
      3.97078717002846E-12   4.12946922653532E-15   3.97491663925499E-12   1.21692126256549E-17   2.40000000000000E-01
      2.40000000000000E-01   0.00000000000000E+00   0.00000000000000E+00   0.00000000000000E+00   0.00000000000000E+00
      0.00000000000000E+00   2.11623777300521E-17
      4.35000000000000E-01
      0.00000000000000E+00   0.00000000000000E+00   0.00000000000000E+00   0.00000000000000E+00  -2.89183293057117E-13
     -3.71927630662244E-12  -4.00845959967956E-12  -1.52141501997650E-17   1.74000000000000E-01   1.74000000000000E-01
      0.00000000000000E+00   0.00000000000000E+00   0.00000000000000E+00   0.00000000000000E+00   0.00000000000000E+00
     -1.64775584876714E-17   2.70000000000000E-01   2.70000000000000E-01   0.00000000000000E+00   0.00000000000000E+00
      4.00437062120497E-12   4.08897847458511E-15   4.00845959967956E-12   1.21037620160881E-17   2.40000000000000E-01
      2.40000000000000E-01   0.00000000000000E+00   0.00000000000000E+00   0.00000000000000E+00   0.00000000000000E+00
      0.00000000000000E+00   1.95879466713482E-17
      4.50000000000000E-01
      0.00000000000000E+00   0.00000000000000E+00   0.00000000000000E+00   0.00000000000000E+00  -2.91269953072039E-13
     -3.77397169635730E-12  -4.06524164942934E-12  -1.52785082786591E-17   1.80000000000000E-01   1.80000000000000E-01
      0.00000000000000E+00   0.00000000000000E+00   0.00000000000000E+00   0.00000000000000E+00   0.00000000000000E+00
     -1.47732919125104E-17   2.70000000000000E-01   2.70000000000000E-01   0.00000000000000E+00   0.00000000000000E+00
      4.06119305336716E-12   4.04859606217368E-15   4.06524164942934E-12   1.20382692231526E-17   2.40000000000000E-01
      2.40000000000000E-01   0.00000000000000E+00   0.00000000000000E+00   0.00000000000000E+00   0.00000000000000E+00
      0.00000000000000E+00   1.80135309680170E-17
      4.65000000000000E-01
      0.00000000000000E+00   0.00000000000000E+00   0.00000000000000E+00   0.00000000000000E+00  -2.93358970574046E-13
     -3.85321524636380E-12  -4.14657421693784E-12  -1.53428551616004E-17   1.86000000000000E-01   1.86000000000000E-01
      0.00000000000000E+00   0.00000000000000E+00   0.00000000000000E+00   0.00000000000000E+00   0.00000000000000E+00
     -1.30690092001370E-17   2.70000000000000E-01   2.70000000000000E-01   0.00000000000000E+00   0.00000000000000E+00
      4.14256589273676E-12   4.00832420108476E-15   4.14657421693784E-12   1.19727329606872E-17   2.40000000000000E-01
      2.40000000000000E-01   0.00000000000000E+00   0.00000000000000E+00   0.00000000000000E+00   0.00000000000000E+00
      0.00000000000000E+00   1.64391314010502E-17
      4.80000000000000E-01
      0.00000000000000E+00   0.00000000000000E+00   0.00000000000000E+00   0.00000000000000E+00  -2.95450300676891E-13
     -3.95870374461820E-12  -4.25415404529509E-12  -1.54071911167896E-17   1.92000000000000E-01   1.92000000000000E-01
      0.00000000000000E+00   0.00000000000000E+00   0.00000000000000E+00   0.00000000000000E+00   0.00000000000000E+00
     -1.13647095509238E-17   2.70000000000000E-01   2.70000000000000E-01   0.00000000000000E+00   0.00000000000000E+00
      4.25018588016783E-12   3.96816512725967E-15   4.25415404529508E-12   1.19071518978458E-17   2.40000000000000E-01
      2.40000000000000E-01   0.00000000000000E+00   0.00000000000000E+00   0.00000000000000E+00   0.00000000000000E+00
      0.00000000000000E+00   1.48647487698676E-17
      4.95000000000000E-01
      0.00000000000000E+00   0.00000000000000E+00   0.00000000000000E+00   0.00000000000000E+00  -2.97543898088565E-13
     -4.09253403884991E-12  -4.39007793693848E-12  -1.54715164048768E-17   1.98000000000000E-01   1.98000000000000E-01
      0.00000000000000E+00   0.00000000000000E+00   0.00000000000000E+00   0.00000000000000E+00   0.00000000000000E+00
     -9.66039214580479E-18   2.70000000000000E-01   2.70000000000000E-01   0.00000000000000E+00   0.00000000000000E+00
      4.38614981584253E-12   3.92812109595278E-15   4.39007793693848E-12   1.18415246573891E-17   2.40000000000000E-01
      2.40000000000000E-01   0.00000000000000E+00   0.00000000000000E+00   0.00000000000000E+00   0.00000000000000E+00
      0.00000000000000E+00   1.32903838932924E-17
      5.10000000000000E-01
      0.00000000000000E+00   0.00000000000000E+00   0.00000000000000E+00   0.00000000000000E+00  -2.99639716959874E-13
     -4.25722312683892E-12  -4.55686284379879E-12  -1.55358312792003E-17   2.04000000000000E-01   2.04000000000000E-01
      0.00000000000000E+00   0.00000000000000E+00   0.00000000000000E+00   0.00000000000000E+00   0.00000000000000E+00
     -7.95605614526265E-18   2.70000000000000E-01   2.70000000000000E-01   0.00000000000000E+00   0.00000000000000E+00
      4.55297464942145E-12   3.88819437734274E-15   4.55686284379879E-12   1.17758498139050E-17   2.40000000000000E-01
      2.40000000000000E-01   0.00000000000000E+00   0.00000000000000E+00   0.00000000000000E+00   0.00000000000000E+00
      0.00000000000000E+00   1.17160376105579E-17
      5.25000000000000E-01
      0.00000000000000E+00   0.00000000000000E+00   0.00000000000000E+00   0.00000000000000E+00  -3.01737710714291E-13
     -4.45573353916862E-12  -4.75747124988292E-12  -1.56001359860181E-17   2.10000000000000E-01   2.10000000000000E-01
      0.00000000000000E+00   0.00000000000000E+00   0.00000000000000E+00   0.00000000000000E+00   0.00000000000000E+00
     -6.25170068828350E-18   2.70000000000000E-01   2.70000000000000E-01   0.00000000000000E+00   0.00000000000000E+00
      4.75362286263042E-12   3.84838725249438E-15   4.75747124988292E-12   1.17101258919551E-17   2.40000000000000E-01
      2.40000000000000E-01   0.00000000000000E+00   0.00000000000000E+00   0.00000000000000E+00   0.00000000000000E+00
      0.00000000000000E+00   1.01417107823465E-17
      5.40000000000000E-01
      0.00000000000000E+00   0.00000000000000E+00   0.00000000000000E+00   0.00000000000000E+00  -3.03837831855093E-13
     -4.69150397808007E-12  -4.99534180993516E-12  -1.56644307647304E-17   2.16000000000000E-01   2.16000000000000E-01
      0.00000000000000E+00   0.00000000000000E+00   0.00000000000000E+00   0.00000000000000E+00   0.00000000000000E+00
     -4.54732489127564E-18   2.70000000000000E-01   2.70000000000000E-01   0.00000000000000E+00   0.00000000000000E+00
      4.99153310792528E-12   3.80870200987397E-15   4.99534180993516E-12   1.16443513641428E-17   2.40000000000000E-01
      2.40000000000000E-01   0.00000000000000E+00   0.00000000000000E+00   0.00000000000000E+00   0.00000000000000E+00
      0.00000000000000E+00   8.56740429186333E-18
      5.55000000000000E-01
      0.00000000000000E+00   0.00000000000000E+00   0.00000000000000E+00   0.00000000000000E+00  -3.05940031752307E-13