DF-ISE text

Info {
  version   = 1.0
  type      = xyplot
  datasets  = [
    "time"
    "source OuterVoltage" "source InnerVoltage" "source QuasiFermiPotential" "source DisplacementCurrent" "source eCurrent"
    "source hCurrent" "source TotalCurrent" "source Charge" "topGate OuterVoltage" "topGate InnerVoltage"
    "topGate QuasiFermiPotential" "topGate DisplacementCurrent" "topGate eCurrent" "topGate hCurrent" "topGate TotalCurrent"
    "topGate Charge" "drain OuterVoltage" "drain InnerVoltage" "drain QuasiFermiPotential" "drain DisplacementCurrent"
    "drain eCurrent" "drain hCurrent" "drain TotalCurrent" "drain Charge" "bottomGate OuterVoltage"
    "bottomGate InnerVoltage" "bottomGate QuasiFermiPotential" "bottomGate DisplacementCurrent" "bottomGate eCurrent" "bottomGate hCurrent"
    "bottomGate TotalCurrent" "bottomGate Charge" ]
  functions = [
    Time
    OuterVoltage InnerVoltage QuasiFermiPotential DisplacementCurrent eCurrent
    hCurrent TotalCurrent Charge OuterVoltage InnerVoltage
    QuasiFermiPotential DisplacementCurrent eCurrent hCurrent TotalCurrent
    Charge OuterVoltage InnerVoltage QuasiFermiPotential DisplacementCurrent
    eCurrent hCurrent TotalCurrent Charge OuterVoltage
    InnerVoltage QuasiFermiPotential DisplacementCurrent eCurrent hCurrent
    TotalCurrent Charge ]
}

Data {
      1.50000000000000E-02
      0.00000000000000E+00   0.00000000000000E+00   0.00000000000000E+00   0.00000000000000E+00  -9.53838262381495E-14
     -2.06694622099739E-14  -1.16053288448123E-13  -1.15564599476911E-17   6.00000000000000E-03   6.00000000000000E-03
      0.00000000000000E+00   0.00000000000000E+00   0.00000000000000E+00   0.00000000000000E+00   0.00000000000000E+00
     -1.68656813700281E-17   2.00000000000000E-02   2.00000000000000E-02   0.00000000000000E+00   0.00000000000000E+00
      1.14413493547309E-13   1.63979490081411E-15   1.16053288448123E-13   1.03152099519582E-17   7.00000000000000E-02
      7.00000000000000E-02   0.00000000000000E+00   0.00000000000000E+00   0.00000000000000E+00   0.00000000000000E+00
      0.00000000000000E+00   1.81069313657610E-17
      3.00000000000000E-02
      0.00000000000000E+00   0.00000000000000E+00   0.00000000000000E+00   0.00000000000000E+00  -9.63877364168099E-14
     -1.95680997930021E-14  -1.15955836209812E-13  -1.16223034936687E-17   1.20000000000000E-02   1.20000000000000E-02
      0.00000000000000E+00   0.00000000000000E+00   0.00000000000000E+00   0.00000000000000E+00   0.00000000000000E+00
     -1.51597641227919E-17   2.00000000000000E-02   2.00000000000000E-02   0.00000000000000E+00   0.00000000000000E+00
      1.14335717872945E-13   1.62011833686674E-15   1.15955836209812E-13   1.02479013090993E-17   7.00000000000000E-02
      7.00000000000000E-02   0.00000000000000E+00   0.00000000000000E+00   0.00000000000000E+00   0.00000000000000E+00
      0.00000000000000E+00   1.65341663073613E-17
      4.50000000000000E-02
      0.00000000000000E+00   0.00000000000000E+00   0.00000000000000E+00   0.00000000000000E+00  -9.73948823931303E-14
     -1.87508681254903E-14  -1.16145750518621E-13  -1.16880944021611E-17   1.80000000000000E-02   1.80000000000000E-02
      0.00000000000000E+00   0.00000000000000E+00   0.00000000000000E+00   0.00000000000000E+00   0.00000000000000E+00
     -1.34538219924460E-17   2.00000000000000E-02   2.00000000000000E-02   0.00000000000000E+00   0.00000000000000E+00
      1.14545219041246E-13   1.60053147737481E-15   1.16145750518620E-13   1.01804902731866E-17   7.00000000000000E-02
      7.00000000000000E-02   0.00000000000000E+00   0.00000000000000E+00   0.00000000000000E+00   0.00000000000000E+00
      0.00000000000000E+00   1.49614261214204E-17
      6.00000000000000E-02
      0.00000000000000E+00   0.00000000000000E+00   0.00000000000000E+00   0.00000000000000E+00  -9.84052127147936E-14
     -1.81957661785751E-14  -1.16600978893369E-13  -1.17538342624460E-17   2.40000000000000E-02   2.40000000000000E-02
      0.00000000000000E+00   0.00000000000000E+00   0.00000000000000E+00   0.00000000000000E+00   0.00000000000000E+00
     -1.17478524258132E-17   2.00000000000000E-02   2.00000000000000E-02   0.00000000000000E+00   0.00000000000000E+00
      1.15019942408286E-13   1.58103648508260E-15   1.16600978893369E-13   1.01129733318679E-17   7.00000000000000E-02
      7.00000000000000E-02   0.00000000000000E+00   0.00000000000000E+00   0.00000000000000E+00   0.00000000000000E+00
      0.00000000000000E+00   1.33887133563912E-17
      7.50000000000000E-02
      0.00000000000000E+00   0.00000000000000E+00   0.00000000000000E+00   0.00000000000000E+00  -9.94186765605810E-14
     -1.78964200633119E-14  -1.17315096623893E-13  -1.18195246101875E-17   3.00000000000000E-02   3.00000000000000E-02
      0.00000000000000E+00   0.00000000000000E+00   0.00000000000000E+00   0.00000000000000E+00   0.00000000000000E+00
     -1.00418528291135E-17   2.00000000000000E-02   2.00000000000000E-02   0.00000000000000E+00   0.00000000000000E+00
      1.15753461175231E-13   1.56163544866222E-15   1.17315096623893E-13   1.00453468385655E-17   7.00000000000000E-02
      7.00000000000000E-02   0.00000000000000E+00   0.00000000000000E+00   0.00000000000000E+00   0.00000000000000E+00
      0.00000000000000E+00   1.18160306007355E-17
      9.00000000000000E-02
      0.00000000000000E+00   0.00000000000000E+00   0.00000000000000E+00   0.00000000000000E+00  -1.00435223761726E-13
     -1.78612537943891E-14  -1.18296477556115E-13  -1.18851669293526E-17   3.60000000000000E-02   3.60000000000000E-02
      0.00000000000000E+00   0.00000000000000E+00   0.00000000000000E+00   0.00000000000000E+00   0.00000000000000E+00
     -8.33582056383423E-18   2.00000000000000E-02   2.00000000000000E-02   0.00000000000000E+00   0.00000000000000E+00
      1.16754147241446E-13   1.54233031466901E-15   1.18296477556115E-13   9.97760700625756E-18   7.00000000000000E-02
      7.00000000000000E-02   0.00000000000000E+00   0.00000000000000E+00   0.00000000000000E+00   0.00000000000000E+00
      0.00000000000000E+00   1.02433804869292E-17
      1.05000000000000E-01
      0.00000000000000E+00   0.00000000000000E+00   0.00000000000000E+00   0.00000000000000E+00  -1.01454804803441E-13
     -1.81134592541257E-14  -1.19568264057567E-13  -1.19507626540566E-17   4.20000000000000E-02   4.20000000000000E-02
      0.00000000000000E+00   0.00000000000000E+00   0.00000000000000E+00   0.00000000000000E+00   0.00000000000000E+00
     -6.62975294245974E-18   2.00000000000000E-02   2.00000000000000E-02   0.00000000000000E+00   0.00000000000000E+00
      1.18045141087725E-13   1.52312296984223E-15   1.19568264057567E-13   9.90974990092259E-18   7.00000000000000E-02
      7.00000000000000E-02   0.00000000000000E+00   0.00000000000000E+00   0.00000000000000E+00   0.00000000000000E+00
      0.00000000000000E+00   8.67076569559376E-18
      1.20000000000000E-01
      0.00000000000000E+00   0.00000000000000E+00   0.00000000000000E+00   0.00000000000000E+00  -1.02477370785328E-13
     -1.86917365587728E-14  -1.21169107344100E-13  -1.20163131703410E-17   4.80000000000000E-02   4.80000000000000E-02
      0.00000000000000E+00   0.00000000000000E+00   0.00000000000000E+00   0.00000000000000E+00   0.00000000000000E+00
     -4.92364722404284E-18   2.00000000000000E-02   2.00000000000000E-02   0.00000000000000E+00   0.00000000000000E+00
      1.19665092147171E-13   1.50401519692889E-15   1.21169107344100E-13   9.84177143461590E-18   7.00000000000000E-02
      7.00000000000000E-02   0.00000000000000E+00   0.00000000000000E+00   0.00000000000000E+00   0.00000000000000E+00
      0.00000000000000E+00   7.09818895976795E-18
      1.35000000000000E-01
      0.00000000000000E+00   0.00000000000000E+00   0.00000000000000E+00   0.00000000000000E+00  -1.03502873515366E-13
     -1.96517976745777E-14  -1.23154671189944E-13  -1.20818198178841E-17   5.40000000000000E-02   5.40000000000000E-02
      0.00000000000000E+00   0.00000000000000E+00   0.00000000000000E+00   0.00000000000000E+00   0.00000000000000E+00
     -3.21750060959756E-18   2.00000000000000E-02   2.00000000000000E-02   0.00000000000000E+00   0.00000000000000E+00
      1.21669662476357E-13   1.48500871358668E-15   1.23154671189944E-13   9.77366735814423E-18   7.00000000000000E-02
      7.00000000000000E-02   0.00000000000000E+00   0.00000000000000E+00   0.00000000000000E+00   0.00000000000000E+00
      0.00000000000000E+00   5.52565306933746E-18
      1.50000000000000E-01
      0.00000000000000E+00   0.00000000000000E+00   0.00000000000000E+00   0.00000000000000E+00  -1.04531265486996E-13
     -2.10686462672504E-14  -1.25599911754247E-13  -1.21472838916486E-17   6.00000000000000E-02   6.00000000000000E-02
      0.00000000000000E+00   0.00000000000000E+00   0.00000000000000E+00   0.00000000000000E+00   0.00000000000000E+00
     -1.51131023729208E-18   2.00000000000000E-02   2.00000000000000E-02   0.00000000000000E+00   0.00000000000000E+00
      1.24133806591339E-13   1.46610516290822E-15   1.25599911754247E-13   9.70543325330056E-18   7.00000000000000E-02
      7.00000000000000E-02   0.00000000000000E+00   0.00000000000000E+00   0.00000000000000E+00   0.00000000000000E+00
      0.00000000000000E+00   3.95316087564014E-18
      1.65000000000000E-01
      0.00000000000000E+00   0.00000000000000E+00   0.00000000000000E+00   0.00000000000000E+00  -1.05562499828968E-13
     -2.30396666873284E-14  -1.28602166516297E-13  -1.22127066434668E-17   6.60000000000000E-02   6.60000000000000E-02
      0.00000000000000E+00   0.00000000000000E+00   0.00000000000000E+00   0.00000000000000E+00   0.00000000000000E+00
      1.94926822582077E-19   2.00000000000000E-02   2.00000000000000E-02   0.00000000000000E+00   0.00000000000000E+00
      1.27154860386495E-13   1.44730612980172E-15   1.28602166516297E-13   9.63706452461767E-18   7.00000000000000E-02
      7.00000000000000E-02   0.00000000000000E+00   0.00000000000000E+00   0.00000000000000E+00   0.00000000000000E+00
      0.00000000000000E+00   2.38071529626701E-18
      1.80000000000000E-01
      0.00000000000000E+00   0.00000000000000E+00   0.00000000000000E+00   0.00000000000000E+00  -1.06596530358964E-13
     -2.56885737615986E-14  -1.32285104120563E-13  -1.22780892835659E-17   7.20000000000000E-02   7.20000000000000E-02
      0.00000000000000E+00   0.00000000000000E+00   0.00000000000000E+00   0.00000000000000E+00   0.00000000000000E+00
      1.90121357289078E-18   2.00000000000000E-02   2.00000000000000E-02   0.00000000000000E+00   0.00000000000000E+00
      1.30856490980273E-13   1.42861314028966E-15   1.32285104120562E-13   9.56855639059420E-18   7.00000000000000E-02
      7.00000000000000E-02   0.00000000000000E+00   0.00000000000000E+00   0.00000000000000E+00   0.00000000000000E+00
      0.00000000000000E+00   8.08319320080958E-19
      1.95000000000000E-01
      0.00000000000000E+00   0.00000000000000E+00   0.00000000000000E+00   0.00000000000000E+00  -1.07633311567428E-13
     -2.91702931416288E-14  -1.36803604709056E-13  -1.23434329820363E-17   7.80000000000000E-02   7.80000000000000E-02
      0.00000000000000E+00   0.00000000000000E+00   0.00000000000000E+00   0.00000000000000E+00   0.00000000000000E+00
      3.60755309521716E-18   2.00000000000000E-02   2.00000000000000E-02   0.00000000000000E+00   0.00000000000000E+00
      1.35393577035621E-13   1.41002767343549E-15   1.36803604709056E-13   9.49990387434196E-18   7.00000000000000E-02
      7.00000000000000E-02   0.00000000000000E+00   0.00000000000000E+00   0.00000000000000E+00   0.00000000000000E+00
      0.00000000000000E+00  -7.64023987522839E-19
      2.10000000000000E-01
      0.00000000000000E+00   0.00000000000000E+00   0.00000000000000E+00   0.00000000000000E+00  -1.08672798649159E-13
     -3.36768590039647E-14  -1.42349657653124E-13  -1.24087388702421E-17   8.40000000000000E-02   8.40000000000000E-02
      0.00000000000000E+00   0.00000000000000E+00   0.00000000000000E+00   0.00000000000000E+00   0.00000000000000E+00
      5.31394855573281E-18   2.00000000000000E-02   2.00000000000000E-02   0.00000000000000E+00   0.00000000000000E+00
      1.40958106490969E-13   1.39155116215456E-15   1.42349657653124E-13   9.43110179359721E-18   7.00000000000000E-02
      7.00000000000000E-02   0.00000000000000E+00   0.00000000000000E+00   0.00000000000000E+00   0.00000000000000E+00
      0.00000000000000E+00  -2.33631147908789E-18
      2.25000000000000E-01
      0.00000000000000E+00   0.00000000000000E+00   0.00000000000000E+00   0.00000000000000E+00  -1.09714947415442E-13
     -3.94444320879557E-14  -1.49159379503397E-13  -1.24740080421792E-17   9.00000000000000E-02   9.00000000000000E-02
      0.00000000000000E+00   0.00000000000000E+00   0.00000000000000E+00   0.00000000000000E+00   0.00000000000000E+00
      7.02040321141630E-18   2.00000000000000E-02   2.00000000000000E-02   0.00000000000000E+00   0.00000000000000E+00
      1.47786194514547E-13   1.37318498885017E-15   1.49159379503397E-13   9.36214475003240E-18   7.00000000000000E-02
      7.00000000000000E-02   0.00000000000000E+00   0.00000000000000E+00   0.00000000000000E+00   0.00000000000000E+00
      0.00000000000000E+00  -3.90853991926950E-18
      2.40000000000000E-01
      0.00000000000000E+00   0.00000000000000E+00   0.00000000000000E+00   0.00000000000000E+00  -1.10759714438597E-13
     -4.67615562826398E-14  -1.57521270721236E-13  -1.25392415557792E-17   9.60000000000000E-02   9.60000000000000E-02
      0.00000000000000E+00   0.00000000000000E+00   0.00000000000000E+00   0.00000000000000E+00   0.00000000000000E+00
      8.72692041665922E-18   2.00000000000000E-02   2.00000000000000E-02   0.00000000000000E+00   0.00000000000000E+00
      1.56166340224267E-13   1.35493049696913E-15   1.57521270721236E-13   9.29302711779681E-18   7.00000000000000E-02
      7.00000000000000E-02   0.00000000000000E+00   0.00000000000000E+00   0.00000000000000E+00   0.00000000000000E+00
      0.00000000000000E+00  -5.48070597867682E-18
      2.55000000000000E-01
      0.00000000000000E+00   0.00000000000000E+00   0.00000000000000E+00   0.00000000000000E+00  -1.11807056796277E-13
     -5.59787861570614E-14  -1.67785842953339E-13  -1.26044404341631E-17   1.02000000000000E-01   1.02000000000000E-01
      0.00000000000000E+00   0.00000000000000E+00   0.00000000000000E+00   0.00000000000000E+00   0.00000000000000E+00
      1.04335036303044E-17   2.00000000000000E-02   2.00000000000000E-02   0.00000000000000E+00   0.00000000000000E+00
      1.66449053978272E-13   1.33678897506634E-15   1.67785842953339E-13   9.22374303120656E-18   7.00000000000000E-02
      7.00000000000000E-02   0.00000000000000E+00   0.00000000000000E+00   0.00000000000000E+00   0.00000000000000E+00
      0.00000000000000E+00  -7.05280622734778E-18
      2.70000000000000E-01
      0.00000000000000E+00   0.00000000000000E+00   0.00000000000000E+00   0.00000000000000E+00  -1.12856932451014E-13
     -6.75198312062374E-14  -1.80376763657252E-13  -1.26696056668451E-17   1.08000000000000E-01   1.08000000000000E-01
      0.00000000000000E+00   0.00000000000000E+00   0.00000000000000E+00   0.00000000000000E+00   0.00000000000000E+00
      1.21401564231665E-17   2.00000000000000E-02   2.00000000000000E-02   0.00000000000000E+00   0.00000000000000E+00
      1.79058001984607E-13   1.31876167264427E-15   1.80376763657252E-13   9.15428637149439E-18   7.00000000000000E-02
      7.00000000000000E-02   0.00000000000000E+00   0.00000000000000E+00   0.00000000000000E+00   0.00000000000000E+00
      0.00000000000000E+00  -8.62483712781580E-18
      2.85000000000000E-01
      0.00000000000000E+00   0.00000000000000E+00   0.00000000000000E+00   0.00000000000000E+00  -1.13909299870186E-13
     -8.18943747401320E-14  -1.95803674610318E-13  -1.27347382108879E-17   1.14000000000000E-01   1.14000000000000E-01
      0.00000000000000E+00   0.00000000000000E+00   0.00000000000000E+00   0.00000000000000E+00   0.00000000000000E+00
      1.38468824860919E-17   2.00000000000000E-02   2.00000000000000E-02   0.00000000000000E+00   0.00000000000000E+00
      1.94502824841214E-13   1.30084976910386E-15   1.95803674610318E-13   9.08465075251918E-18   7.00000000000000E-02
      7.00000000000000E-02   0.00000000000000E+00   0.00000000000000E+00   0.00000000000000E+00   0.00000000000000E+00
      0.00000000000000E+00  -1.01967950277232E-17
      3.00000000000000E-01
      0.00000000000000E+00   0.00000000000000E+00   0.00000000000000E+00   0.00000000000000E+00  -1.14964118177523E-13
     -9.97127368099329E-14  -2.14676854987455E-13  -1.27998389920114E-17   1.20000000000000E-01   1.20000000000000E-01
      0.00000000000000E+00   0.00000000000000E+00   0.00000000000000E+00   0.00000000000000E+00   0.00000000000000E+00
      1.55536856386194E-17   2.00000000000000E-02   2.00000000000000E-02   0.00000000000000E+00   0.00000000000000E+00
      2.13393800602539E-13   1.28305438491654E-15   2.14676854987455E-13   9.01482950532239E-18   7.00000000000000E-02
      7.00000000000000E-02   0.00000000000000E+00   0.00000000000000E+00   0.00000000000000E+00   0.00000000000000E+00
      0.00000000000000E+00  -1.17686761519304E-17
      3.15000000000000E-01
      0.00000000000000E+00   0.00000000000000E+00   0.00000000000000E+00   0.00000000000000E+00  -1.16021347292230E-13
     -1.21702560692751E-13  -2.37723907984981E-13  -1.28649089056553E-17   1.26000000000000E-01   1.26000000000000E-01
      0.00000000000000E+00   0.00000000000000E+00   0.00000000000000E+00   0.00000000000000E+00   0.00000000000000E+00
      1.72605698383148E-17   2.00000000000000E-02   2.00000000000000E-02   0.00000000000000E+00   0.00000000000000E+00
      2.36458531424218E-13   1.26537656076308E-15   2.37723907984981E-13   8.94481566140479E-18   7.00000000000000E-02
      7.00000000000000E-02   0.00000000000000E+00   0.00000000000000E+00   0.00000000000000E+00   0.00000000000000E+00
      0.00000000000000E+00  -1.33404765940643E-17
      3.30000000000000E-01
      0.00000000000000E+00   0.00000000000000E+00   0.00000000000000E+00   0.00000000000000E+00  -1.17080947590371E-13
     -1.48727711826157E-13  -2.65808659416527E-13  -1.29299488179970E-17   1.32000000000000E-01   1.32000000000000E-01
      0.00000000000000E+00   0.00000000000000E+00   0.00000000000000E+00   0.00000000000000E+00   0.00000000000000E+00
      1.89675391908575E-17   2.00000000000000E-02   2.00000000000000E-02   0.00000000000000E+00   0.00000000000000E+00
      2.64560842178723E-13   1.24781723780327E-15   2.65808659416527E-13   8.87460193458144E-18   7.00000000000000E-02
      7.00000000000000E-02   0.00000000000000E+00   0.00000000000000E+00   0.00000000000000E+00   0.00000000000000E+00
      0.00000000000000E+00  -1.49121923074419E-17
      3.45000000000000E-01
      0.00000000000000E+00   0.00000000000000E+00   0.00000000000000E+00   0.00000000000000E+00  -1.18142880338084E-13
     -1.81809586267075E-13  -2.99952466605159E-13  -1.29949595669258E-17   1.38000000000000E-01   1.38000000000000E-01
      0.00000000000000E+00   0.00000000000000E+00   0.00000000000000E+00   0.00000000000000E+00   0.00000000000000E+00
      2.06745979609698E-17   2.00000000000000E-02   2.00000000000000E-02   0.00000000000000E+00   0.00000000000000E+00
      2.98722089363845E-13   1.23037724131313E-15   2.99952466605159E-13   8.80418070125415E-18   7.00000000000000E-02
      7.00000000000000E-02   0.00000000000000E+00   0.00000000000000E+00   0.00000000000000E+00   0.00000000000000E+00
      0.00000000000000E+00  -1.64838190952982E-17
      3.60000000000000E-01
      0.00000000000000E+00   0.00000000000000E+00   0.00000000000000E+00   0.00000000000000E+00  -1.19207107078004E-13
     -2.22151032878167E-13  -3.41358139956171E-13  -1.30599419629733E-17   1.44000000000000E-01   1.44000000000000E-01
      0.00000000000000E+00   0.00000000000000E+00   0.00000000000000E+00   0.00000000000000E+00   0.00000000000000E+00
      2.23817505842900E-17   2.00000000000000E-02   2.00000000000000E-02   0.00000000000000E+00   0.00000000000000E+00
      3.40145082699387E-13   1.21305725678378E-15   3.41358139956171E-13   8.73354397892133E-18   7.00000000000000E-02
      7.00000000000000E-02   0.00000000000000E+00   0.00000000000000E+00   0.00000000000000E+00   0.00000000000000E+00
      0.00000000000000E+00  -1.80553526002380E-17
      3.75000000000000E-01
      0.00000000000000E+00   0.00000000000000E+00   0.00000000000000E+00   0.00000000000000E+00  -1.20273590234853E-13
     -2.71163099492173E-13  -3.91436689727026E-13  -1.31248967902022E-17   1.50000000000000E-01   1.50000000000000E-01
      0.00000000000000E+00   0.00000000000000E+00   0.00000000000000E+00   0.00000000000000E+00   0.00000000000000E+00
      2.40890016803027E-17   2.00000000000000E-02   2.00000000000000E-02   0.00000000000000E+00   0.00000000000000E+00
      3.90240831937772E-13   1.19585778925378E-15   3.91436689727026E-13   8.66268340272153E-18   7.00000000000000E-02
      7.00000000000000E-02   0.00000000000000E+00   0.00000000000000E+00   0.00000000000000E+00   0.00000000000000E+00
      0.00000000000000E+00  -1.96267882928220E-17
      3.90000000000000E-01
      0.00000000000000E+00   0.00000000000000E+00   0.00000000000000E+00   0.00000000000000E+00  -1.21342292868642E-13
     -3.30494818268164E-13  -4.51837111136805E-13  -1.31898248070529E-17   1.56000000000000E-01   1.56000000000000E-01
      0.00000000000000E+00   0.00000000000000E+00   0.00000000000000E+00   0.00000000000000E+00   0.00000000000000E+00
      2.57963560664569E-17   2.00000000000000E-02   2.00000000000000E-02   0.00000000000000E+00   0.00000000000000E+00
      4.50658332003674E-13   1.17877913313055E-15   4.51837111136805E-13   8.59159019978140E-18   7.00000000000000E-02
      7.00000000000000E-02   0.00000000000000E+00   0.00000000000000E+00   0.00000000000000E+00   0.00000000000000E+00
      0.00000000000000E+00  -2.11981214591854E-17
      4.05000000000000E-01
      0.00000000000000E+00   0.00000000000000E+00   0.00000000000000E+00   0.00000000000000E+00  -1.22413178426961E-13
     -4.02066249174169E-13  -5.24479427601130E-13  -1.32547267471479E-17   1.62000000000000E-01   1.62000000000000E-01
      0.00000000000000E+00   0.00000000000000E+00   0.00000000000000E+00   0.00000000000000E+00   0.00000000000000E+00
      2.75038187736144E-17   2.00000000000000E-02   2.00000000000000E-02   0.00000000000000E+00   0.00000000000000E+00
      5.23317606290126E-13   1.16182131100393E-15   5.24479427601130E-13   8.52025516110929E-18   7.00000000000000E-02
      7.00000000000000E-02   0.00000000000000E+00   0.00000000000000E+00   0.00000000000000E+00   0.00000000000000E+00
      0.00000000000000E+00  -2.27693471875758E-17
      4.20000000000000E-01
      0.00000000000000E+00   0.00000000000000E+00   0.00000000000000E+00   0.00000000000000E+00  -1.23486211227799E-13
     -4.88105003250332E-13  -6.11591214478131E-13  -1.33196033200557E-17   1.68000000000000E-01   1.68000000000000E-01
      0.00000000000000E+00   0.00000000000000E+00   0.00000000000000E+00   0.00000000000000E+00   0.00000000000000E+00
      2.92113950629957E-17   2.00000000000000E-02   2.00000000000000E-02   0.00000000000000E+00   0.00000000000000E+00
      6.10446230456465E-13   1.14498402166592E-15   6.11591214478131E-13   8.44866861074248E-18   7.00000000000000E-02
      7.00000000000000E-02   0.00000000000000E+00   0.00000000000000E+00   0.00000000000000E+00   0.00000000000000E+00
      0.00000000000000E+00  -2.43404603536825E-17
      4.35000000000000E-01
      0.00000000000000E+00   0.00000000000000E+00   0.00000000000000E+00   0.00000000000000E+00  -1.24561355846300E-13
     -5.91186468707915E-13  -7.15747824554214E-13  -1.33844552120126E-17   1.74000000000000E-01   1.74000000000000E-01
      0.00000000000000E+00   0.00000000000000E+00   0.00000000000000E+00   0.00000000000000E+00   0.00000000000000E+00
      3.09190904448060E-17   2.00000000000000E-02   2.00000000000000E-02   0.00000000000000E+00   0.00000000000000E+00
      7.14619557995339E-13   1.12826655887575E-15   7.15747824554215E-13   8.37682037181841E-18   7.00000000000000E-02
      7.00000000000000E-02   0.00000000000000E+00   0.00000000000000E+00   0.00000000000000E+00   0.00000000000000E+00
      0.00000000000000E+00  -2.59114556046118E-17
      4.50000000000000E-01
      0.00000000000000E+00   0.00000000000000E+00   0.00000000000000E+00   0.00000000000000E+00  -1.25638578017482E-13
     -7.14277963300942E-13  -8.39916541318424E-13  -1.34492830866026E-17   1.80000000000000E-01   1.80000000000000E-01
      0.00000000000000E+00   0.00000000000000E+00   0.00000000000000E+00   0.00000000000000E+00   0.00000000000000E+00
      3.26269106987527E-17   2.00000000000000E-02   2.00000000000000E-02   0.00000000000000E+00   0.00000000000000E+00
      8.38804873598439E-13   1.11166771998448E-15   8.39916541318423E-13   8.30469972919781E-18   7.00000000000000E-02
      7.00000000000000E-02   0.00000000000000E+00   0.00000000000000E+00   0.00000000000000E+00   0.00000000000000E+00
      0.00000000000000E+00  -2.74823273413478E-17
      4.65000000000000E-01
      0.00000000000000E+00   0.00000000000000E+00   0.00000000000000E+00   0.00000000000000E+00  -1.26717843033182E-13
     -8.60787035554600E-13  -9.87504878587782E-13  -1.35140875853960E-17   1.86000000000000E-01   1.86000000000000E-01
      0.00000000000000E+00   0.00000000000000E+00   0.00000000000000E+00   0.00000000000000E+00   0.00000000000000E+00
      3.43348618966902E-17   2.00000000000000E-02   2.00000000000000E-02   0.00000000000000E+00   0.00000000000000E+00
      9.86409692896403E-13   1.09518569137995E-15   9.87504878587783E-13   8.23229538821907E-18   7.00000000000000E-02
      7.00000000000000E-02   0.00000000000000E+00   0.00000000000000E+00   0.00000000000000E+00   0.00000000000000E+00
      0.00000000000000E+00  -2.90530696995132E-17
      4.80000000000000E-01
      0.00000000000000E+00   0.00000000000000E+00   0.00000000000000E+00   0.00000000000000E+00  -1.27799117695146E-13
     -1.03461413550882E-12  -1.16241325320397E-12  -1.35788693285440E-17   1.92000000000000E-01   1.92000000000000E-01
      0.00000000000000E+00   0.00000000000000E+00   0.00000000000000E+00   0.00000000000000E+00   0.00000000000000E+00
      3.60429504276607E-17   2.00000000000000E-02   2.00000000000000E-02   0.00000000000000E+00   0.00000000000000E+00
      1.16133443528892E-12   1.07881791504615E-15   1.16241325320396E-12   8.15959542910909E-18   7.00000000000000E-02
      7.00000000000000E-02   0.00000000000000E+00   0.00000000000000E+00   0.00000000000000E+00   0.00000000000000E+00
      0.00000000000000E+00  -3.06236765282258E-17
      4.95000000000000E-01
      0.00000000000000E+00   0.00000000000000E+00   0.00000000000000E+00   0.00000000000000E+00  -1.28882369308795E-13
     -1.24020987257834E-12  -1.36909224188713E-12  -1.36436289153298E-17   1.98000000000000E-01   1.98000000000000E-01
      0.00000000000000E+00   0.00000000000000E+00   0.00000000000000E+00   0.00000000000000E+00   0.00000000000000E+00
      3.77511830256322E-17   2.00000000000000E-02   2.00000000000000E-02   0.00000000000000E+00   0.00000000000000E+00
      1.36802968097071E-12   1.06256091642876E-15   1.36909224188713E-12   8.08658725651367E-18   7.00000000000000E-02
      7.00000000000000E-02   0.00000000000000E+00   0.00000000000000E+00   0.00000000000000E+00   0.00000000000000E+00
      0.00000000000000E+00  -3.21941413668161E-17
      5.10000000000000E-01
      0.00000000000000E+00   0.00000000000000E+00   0.00000000000000E+00   0.00000000000000E+00  -1.29967564837543E-13
     -1.48263707408001E-12  -1.61260463891755E-12  -1.37083669246749E-17   2.04000000000000E-01   2.04000000000000E-01
      0.00000000000000E+00   0.00000000000000E+00   0.00000000000000E+00   0.00000000000000E+00   0.00000000000000E+00
      3.94595668002790E-17   2.00000000000000E-02   2.00000000000000E-02   0.00000000000000E+00   0.00000000000000E+00
      1.61155822881423E-12   1.04641010331422E-15   1.61260463891755E-12   8.01325754354069E-18   7.00000000000000E-02
      7.00000000000000E-02   0.00000000000000E+00   0.00000000000000E+00   0.00000000000000E+00   0.00000000000000E+00
      0.00000000000000E+00  -3.37644574191448E-17
      5.25000000000000E-01
      0.00000000000000E+00   0.00000000000000E+00   0.00000000000000E+00   0.00000000000000E+00  -1.31054672271445E-13
     -1.76763785287766E-12  -1.89869252514910E-12  -1.37730839155974E-17   2.10000000000000E-01   2.10000000000000E-01
      0.00000000000000E+00   0.00000000000000E+00   0.00000000000000E+00   0.00000000000000E+00   0.00000000000000E+00
      4.11681092711894E-17   2.00000000000000E-02   2.00000000000000E-02   0.00000000000000E+00   0.00000000000000E+00
      1.89766216562998E-12   1.03035951912023E-15   1.89869252514910E-12   7.93959216963049E-18   7.00000000000000E-02
      7.00000000000000E-02   0.00000000000000E+00   0.00000000000000E+00   0.00000000000000E+00   0.00000000000000E+00
      0.00000000000000E+00  -3.53346175252225E-17
      5.40000000000000E-01
      0.00000000000000E+00   0.00000000000000E+00   0.00000000000000E+00   0.00000000000000E+00  -1.32143660510043E-13
     -2.10170588660278E-12  -2.23384954711283E-12  -1.38377804276220E-17   2.16000000000000E-01   2.16000000000000E-01
      0.00000000000000E+00   0.00000000000000E+00   0.00000000000000E+00   0.00000000000000E+00   0.00000000000000E+00
      4.28768184059418E-17   2.00000000000000E-02   2.00000000000000E-02   0.00000000000000E+00   0.00000000000000E+00
      2.23283514556519E-12   1.01440154763215E-15   2.23384954711282E-12   7.86557615147769E-18   7.00000000000000E-02
      7.00000000000000E-02   0.00000000000000E+00   0.00000000000000E+00   0.00000000000000E+00   0.00000000000000E+00
      0.00000000000000E+00  -3.69046141297975E-17
      5.55000000000000E-01
      0.00000000000000E+00   0.00000000000000E+00   0.00000000000000E+00   0.00000000000000E+00  -1.33234498004404E-13