DF-ISE text

Info {
  version   = 1.0
  type      = xyplot
  datasets  = [
    "time"
    "source OuterVoltage" "source InnerVoltage" "source QuasiFermiPotential" "source DisplacementCurrent" "source eCurrent"
    "source hCurrent" "source TotalCurrent" "source Charge" "topGate OuterVoltage" "topGate InnerVoltage"
    "topGate QuasiFermiPotential" "topGate DisplacementCurrent" "topGate eCurrent" "topGate hCurrent" "topGate TotalCurrent"
    "topGate Charge" "drain OuterVoltage" "drain InnerVoltage" "drain QuasiFermiPotential" "drain DisplacementCurrent"
    "drain eCurrent" "drain hCurrent" "drain TotalCurrent" "drain Charge" "bottomGate OuterVoltage"
    "bottomGate InnerVoltage" "bottomGate QuasiFermiPotential" "bottomGate DisplacementCurrent" "bottomGate eCurrent" "bottomGate hCurrent"
    "bottomGate TotalCurrent" "bottomGate Charge" ]
  functions = [
    Time
    OuterVoltage InnerVoltage QuasiFermiPotential DisplacementCurrent eCurrent
    hCurrent TotalCurrent Charge OuterVoltage InnerVoltage
    QuasiFermiPotential DisplacementCurrent eCurrent hCurrent TotalCurrent
    Charge OuterVoltage InnerVoltage QuasiFermiPotential DisplacementCurrent
    eCurrent hCurrent TotalCurrent Charge OuterVoltage
    InnerVoltage QuasiFermiPotential DisplacementCurrent eCurrent hCurrent
    TotalCurrent Charge ]
}

Data {
      1.50000000000000E-02
      0.00000000000000E+00   0.00000000000000E+00   0.00000000000000E+00   0.00000000000000E+00  -1.16469776634989E-13
     -1.47785331494029E-10  -1.47901801270664E-10  -9.20118056069814E-18   6.00000000000000E-03   6.00000000000000E-03
      0.00000000000000E+00   0.00000000000000E+00   0.00000000000000E+00   0.00000000000000E+00   0.00000000000000E+00
     -2.50426735762373E-17   3.10000000000000E-01   3.10000000000000E-01   0.00000000000000E+00   0.00000000000000E+00
      1.47896594431489E-10   5.20683917484048E-15   1.47901801270664E-10   1.88494359544945E-17   3.60000000000000E-01
      3.60000000000000E-01   0.00000000000000E+00   0.00000000000000E+00   0.00000000000000E+00   0.00000000000000E+00
      0.00000000000000E+00   1.53944181824409E-17
      3.00000000000000E-02
      0.00000000000000E+00   0.00000000000000E+00   0.00000000000000E+00   0.00000000000000E+00  -1.18053997393901E-13
     -1.36660417569364E-10  -1.36778471566758E-10  -9.27047625523468E-18   1.20000000000000E-02   1.20000000000000E-02
      0.00000000000000E+00   0.00000000000000E+00   0.00000000000000E+00   0.00000000000000E+00   0.00000000000000E+00
     -2.33366612959871E-17   3.10000000000000E-01   3.10000000000000E-01   0.00000000000000E+00   0.00000000000000E+00
      1.36772938733461E-10   5.53283329771758E-15   1.36778471566758E-10   1.87853911890586E-17   3.60000000000000E-01
      3.60000000000000E-01   0.00000000000000E+00   0.00000000000000E+00   0.00000000000000E+00   0.00000000000000E+00
      0.00000000000000E+00   1.38217463621632E-17
      4.50000000000000E-02
      0.00000000000000E+00   0.00000000000000E+00   0.00000000000000E+00   0.00000000000000E+00  -1.19648182469491E-13
     -1.26457324501965E-10  -1.26576972684435E-10  -9.33960823213607E-18   1.80000000000000E-02   1.80000000000000E-02
      0.00000000000000E+00   0.00000000000000E+00   0.00000000000000E+00   0.00000000000000E+00   0.00000000000000E+00
     -2.16307316942136E-17   3.10000000000000E-01   3.10000000000000E-01   0.00000000000000E+00   0.00000000000000E+00
      1.26571151714671E-10   5.82096976421063E-15   1.26576972684435E-10   1.87213477943949E-17   3.60000000000000E-01
      3.60000000000000E-01   0.00000000000000E+00   0.00000000000000E+00   0.00000000000000E+00   0.00000000000000E+00
      0.00000000000000E+00   1.22489921319548E-17
      6.00000000000000E-02
      0.00000000000000E+00   0.00000000000000E+00   0.00000000000000E+00   0.00000000000000E+00  -1.21252217346971E-13
     -1.17106792880712E-10  -1.17228045098059E-10  -9.40858192300853E-18   2.40000000000000E-02   2.40000000000000E-02
      0.00000000000000E+00   0.00000000000000E+00   0.00000000000000E+00   0.00000000000000E+00   0.00000000000000E+00
     -1.99248817421391E-17   3.10000000000000E-01   3.10000000000000E-01   0.00000000000000E+00   0.00000000000000E+00
      1.17221970225136E-10   6.07487292317384E-15   1.17228045098059E-10   1.86573051811995E-17   3.60000000000000E-01
      3.60000000000000E-01   0.00000000000000E+00   0.00000000000000E+00   0.00000000000000E+00   0.00000000000000E+00
      0.00000000000000E+00   1.06761584839481E-17
      7.50000000000000E-02
      0.00000000000000E+00   0.00000000000000E+00   0.00000000000000E+00   0.00000000000000E+00  -1.22865986163467E-13
     -1.08544177014090E-10  -1.08667043000253E-10  -9.47740257144885E-18   3.00000000000000E-02   3.00000000000000E-02
      0.00000000000000E+00   0.00000000000000E+00   0.00000000000000E+00   0.00000000000000E+00   0.00000000000000E+00
     -1.82191085354822E-17   3.10000000000000E-01   3.10000000000000E-01   0.00000000000000E+00   0.00000000000000E+00
      1.08660745155116E-10   6.29784513676961E-15   1.08667043000253E-10   1.85932628163497E-17   3.60000000000000E-01
      3.60000000000000E-01   0.00000000000000E+00   0.00000000000000E+00   0.00000000000000E+00   0.00000000000000E+00
      0.00000000000000E+00   9.10324829058133E-18
      9.00000000000000E-02
      0.00000000000000E+00   0.00000000000000E+00   0.00000000000000E+00   0.00000000000000E+00  -1.24489371926115E-13
     -1.00709206885582E-10  -1.00833696257508E-10  -9.54607523934258E-18   3.60000000000000E-02   3.60000000000000E-02
      0.00000000000000E+00   0.00000000000000E+00   0.00000000000000E+00   0.00000000000000E+00   0.00000000000000E+00
     -1.65134092877424E-17   3.10000000000000E-01   3.10000000000000E-01   0.00000000000000E+00   0.00000000000000E+00
      1.00827203361214E-10   6.49289629363810E-15   1.00833696257508E-10   1.85292202163868E-17   3.60000000000000E-01
      3.60000000000000E-01   0.00000000000000E+00   0.00000000000000E+00   0.00000000000000E+00   0.00000000000000E+00
      0.00000000000000E+00   7.53026431069824E-18
      1.05000000000000E-01
      0.00000000000000E+00   0.00000000000000E+00   0.00000000000000E+00   0.00000000000000E+00  -1.26122256712530E-13
     -9.35457571919286E-11  -9.36718794486411E-11  -9.61460481298585E-18   4.20000000000000E-02   4.20000000000000E-02
      0.00000000000000E+00   0.00000000000000E+00   0.00000000000000E+00   0.00000000000000E+00   0.00000000000000E+00
     -1.48077813239785E-17   3.10000000000000E-01   3.10000000000000E-01   0.00000000000000E+00   0.00000000000000E+00
      9.36652166836229E-11   6.66276501825313E-15   9.36718794486412E-11   1.84651769417316E-17   3.60000000000000E-01
      3.60000000000000E-01   0.00000000000000E+00   0.00000000000000E+00   0.00000000000000E+00   0.00000000000000E+00
      0.00000000000000E+00   5.95720919523273E-18
      1.20000000000000E-01
      0.00000000000000E+00   0.00000000000000E+00   0.00000000000000E+00   0.00000000000000E+00  -1.27764521855326E-13
     -8.70016235910968E-11  -8.71293881129521E-11  -9.68299600903268E-18   4.80000000000000E-02   4.80000000000000E-02
      0.00000000000000E+00   0.00000000000000E+00   0.00000000000000E+00   0.00000000000000E+00   0.00000000000000E+00
     -1.31022220750324E-17   3.10000000000000E-01   3.10000000000000E-01   0.00000000000000E+00   0.00000000000000E+00
      8.71225781697089E-11   6.80994324324836E-15   8.71293881129522E-11   1.84011325915497E-17   3.60000000000000E-01
      3.60000000000000E-01   0.00000000000000E+00   0.00000000000000E+00   0.00000000000000E+00   0.00000000000000E+00
      0.00000000000000E+00   4.38408549251528E-18
      1.35000000000000E-01
      0.00000000000000E+00   0.00000000000000E+00   0.00000000000000E+00   0.00000000000000E+00  -1.29416048112135E-13
     -8.10283062507839E-11  -8.11577222988960E-11  -9.75125338026954E-18   5.40000000000000E-02   5.40000000000000E-02
      0.00000000000000E+00   0.00000000000000E+00   0.00000000000000E+00   0.00000000000000E+00   0.00000000000000E+00
     -1.13967290721569E-17   3.10000000000000E-01   3.10000000000000E-01   0.00000000000000E+00   0.00000000000000E+00
      8.11507856042557E-11   6.93669464029006E-15   8.11577222988960E-11   1.83370867991905E-17   3.60000000000000E-01
      3.60000000000000E-01   0.00000000000000E+00   0.00000000000000E+00   0.00000000000000E+00   0.00000000000000E+00
      0.00000000000000E+00   2.81089565323590E-18
      1.50000000000000E-01
      0.00000000000000E+00   0.00000000000000E+00   0.00000000000000E+00   0.00000000000000E+00  -1.31076715822389E-13
     -7.55808007871616E-11  -7.57118775029840E-11  -9.81938132121952E-18   6.00000000000000E-02   6.00000000000000E-02
      0.00000000000000E+00   0.00000000000000E+00   0.00000000000000E+00   0.00000000000000E+00   0.00000000000000E+00
     -9.69129994200834E-18   3.10000000000000E-01   3.10000000000000E-01   0.00000000000000E+00   0.00000000000000E+00
      7.57048324314613E-11   7.04507152270522E-15   7.57118775029840E-11   1.82730392281346E-17   3.60000000000000E-01
      3.60000000000000E-01   0.00000000000000E+00   0.00000000000000E+00   0.00000000000000E+00   0.00000000000000E+00
      0.00000000000000E+00   1.23764203509330E-18
      1.65000000000000E-01
      0.00000000000000E+00   0.00000000000000E+00   0.00000000000000E+00   0.00000000000000E+00  -1.32746405051993E-13
     -7.06173966710485E-11  -7.07501430761005E-11  -9.88738407357862E-18   6.60000000000000E-02   6.60000000000000E-02
      0.00000000000000E+00   0.00000000000000E+00   0.00000000000000E+00   0.00000000000000E+00   0.00000000000000E+00
     -7.98593240197108E-18   3.10000000000000E-01   3.10000000000000E-01   0.00000000000000E+00   0.00000000000000E+00
      7.07430061382654E-11   7.13693783516273E-15   7.07501430761005E-11   1.82089895683916E-17   3.60000000000000E-01
      3.60000000000000E-01   0.00000000000000E+00   0.00000000000000E+00   0.00000000000000E+00   0.00000000000000E+00
      0.00000000000000E+00  -3.35673092841883E-19
      1.80000000000000E-01
      0.00000000000000E+00   0.00000000000000E+00   0.00000000000000E+00   0.00000000000000E+00  -1.34424995726869E-13
     -6.60994831367024E-11  -6.62339081324292E-11  -9.95526573148669E-18   7.20000000000000E-02   7.20000000000000E-02
      0.00000000000000E+00   0.00000000000000E+00   0.00000000000000E+00   0.00000000000000E+00   0.00000000000000E+00
     -6.28062425578375E-18   3.10000000000000E-01   3.10000000000000E-01   0.00000000000000E+00   0.00000000000000E+00
      6.62266941529646E-11   7.21397946453451E-15   6.62339081324292E-11   1.81449375332965E-17   3.60000000000000E-01
      3.60000000000000E-01   0.00000000000000E+00   0.00000000000000E+00   0.00000000000000E+00   0.00000000000000E+00
      0.00000000000000E+00  -1.90904754602603E-18
      1.95000000000000E-01
      0.00000000000000E+00   0.00000000000000E+00   0.00000000000000E+00   0.00000000000000E+00  -1.36112367756271E-13
     -6.19913626528846E-11  -6.21274750206409E-11  -1.00230302466363E-17   7.80000000000000E-02   7.80000000000000E-02
      0.00000000000000E+00   0.00000000000000E+00   0.00000000000000E+00   0.00000000000000E+00   0.00000000000000E+00
     -4.57537338944037E-18   3.10000000000000E-01   3.10000000000000E-01   0.00000000000000E+00   0.00000000000000E+00
      6.21201972975058E-11   7.27772313512179E-15   6.21274750206409E-11   1.80808828566583E-17   3.60000000000000E-01
      3.60000000000000E-01   0.00000000000000E+00   0.00000000000000E+00   0.00000000000000E+00   0.00000000000000E+00
      0.00000000000000E+00  -3.48247922058155E-18
      2.10000000000000E-01
      0.00000000000000E+00   0.00000000000000E+00   0.00000000000000E+00   0.00000000000000E+00  -1.37808401146666E-13
     -5.82600719641567E-11  -5.83978803653034E-11  -1.00906814332223E-17   8.40000000000000E-02   8.40000000000000E-02
      0.00000000000000E+00   0.00000000000000E+00   0.00000000000000E+00   0.00000000000000E+00   0.00000000000000E+00
     -2.87017776734243E-18   3.10000000000000E-01   3.10000000000000E-01   0.00000000000000E+00   0.00000000000000E+00
      5.83905508165041E-11   7.32954879924956E-15   5.83978803653033E-11   1.80168252902213E-17   3.60000000000000E-01
      3.60000000000000E-01   0.00000000000000E+00   0.00000000000000E+00   0.00000000000000E+00   0.00000000000000E+00
      0.00000000000000E+00  -5.05596608965652E-18
      2.25000000000000E-01
      0.00000000000000E+00   0.00000000000000E+00   0.00000000000000E+00   0.00000000000000E+00  -1.39512976106927E-13
     -5.48752107174465E-11  -5.50147236935534E-11  -1.01582229727352E-17   9.00000000000000E-02   9.00000000000000E-02
      0.00000000000000E+00   0.00000000000000E+00   0.00000000000000E+00   0.00000000000000E+00   0.00000000000000E+00
     -1.16503542868055E-18   3.10000000000000E-01   3.10000000000000E-01   0.00000000000000E+00   0.00000000000000E+00
      5.50073529910830E-11   7.37070247050761E-15   5.50147236935535E-11   1.79527646014031E-17   3.60000000000000E-01
      3.60000000000000E-01   0.00000000000000E+00   0.00000000000000E+00   0.00000000000000E+00   0.00000000000000E+00
      0.00000000000000E+00  -6.62950619998736E-18
      2.40000000000000E-01
      0.00000000000000E+00   0.00000000000000E+00   0.00000000000000E+00   0.00000000000000E+00  -1.41225973145523E-13
     -5.18087776665583E-11  -5.19500036397038E-11  -1.02256584186020E-17   9.60000000000000E-02   9.60000000000000E-02
      0.00000000000000E+00   0.00000000000000E+00   0.00000000000000E+00   0.00000000000000E+00   0.00000000000000E+00
      5.40055515973501E-19   3.10000000000000E-01   3.10000000000000E-01   0.00000000000000E+00   0.00000000000000E+00
      5.19426013312431E-11   7.40230846067796E-15   5.19500036397038E-11   1.78887005712773E-17   3.60000000000000E-01
      3.60000000000000E-01   0.00000000000000E+00   0.00000000000000E+00   0.00000000000000E+00   0.00000000000000E+00
      0.00000000000000E+00  -8.20309766864874E-18
      2.55000000000000E-01
      0.00000000000000E+00   0.00000000000000E+00   0.00000000000000E+00   0.00000000000000E+00  -1.42947273160354E-13
     -4.90350144340299E-11  -4.91779617071902E-11  -1.02929912006782E-17   1.02000000000000E-01   1.02000000000000E-01
      0.00000000000000E+00   0.00000000000000E+00   0.00000000000000E+00   0.00000000000000E+00   0.00000000000000E+00
      2.24509688788151E-18   3.10000000000000E-01   3.10000000000000E-01   0.00000000000000E+00   0.00000000000000E+00
      4.91705363268170E-11   7.42538037323927E-15   4.91779617071902E-11   1.78246329927732E-17   3.60000000000000E-01
      3.60000000000000E-01   0.00000000000000E+00   0.00000000000000E+00   0.00000000000000E+00   0.00000000000000E+00
      0.00000000000000E+00  -9.77673867997648E-18
      2.70000000000000E-01
      0.00000000000000E+00   0.00000000000000E+00   0.00000000000000E+00   0.00000000000000E+00  -1.44676757521843E-13
     -4.65302567971514E-11  -4.66749335546733E-11  -1.03602246295929E-17   1.08000000000000E-01   1.08000000000000E-01
      0.00000000000000E+00   0.00000000000000E+00   0.00000000000000E+00   0.00000000000000E+00   0.00000000000000E+00
      3.95009044317574E-18   3.10000000000000E-01   3.10000000000000E-01   0.00000000000000E+00   0.00000000000000E+00
      4.66674927242988E-11   7.44083037451423E-15   4.66749335546733E-11   1.77605616690677E-17   3.60000000000000E-01
      3.60000000000000E-01   0.00000000000000E+00   0.00000000000000E+00   0.00000000000000E+00   0.00000000000000E+00
      0.00000000000000E+00  -1.13504274826505E-17
      2.85000000000000E-01
      0.00000000000000E+00   0.00000000000000E+00   0.00000000000000E+00   0.00000000000000E+00  -1.46414308149878E-13
     -4.42727934562254E-11  -4.44192077643752E-11  -1.04273619009524E-17   1.14000000000000E-01   1.14000000000000E-01
      0.00000000000000E+00   0.00000000000000E+00   0.00000000000000E+00   0.00000000000000E+00   0.00000000000000E+00
      5.65503787573193E-18   3.10000000000000E-01   3.10000000000000E-01   0.00000000000000E+00   0.00000000000000E+00
      4.44117582851291E-11   7.44947924614158E-15   4.44192077643752E-11   1.76964864121469E-17   3.60000000000000E-01
      3.60000000000000E-01   0.00000000000000E+00   0.00000000000000E+00   0.00000000000000E+00   0.00000000000000E+00
      0.00000000000000E+00  -1.29241623869264E-17
      3.00000000000000E-01
      0.00000000000000E+00   0.00000000000000E+00   0.00000000000000E+00   0.00000000000000E+00  -1.48159807585160E-13
     -4.22427322277843E-11  -4.23908920353695E-11  -1.04944060994047E-17   1.20000000000000E-01   1.20000000000000E-01
      0.00000000000000E+00   0.00000000000000E+00   0.00000000000000E+00   0.00000000000000E+00   0.00000000000000E+00
      7.35994081989086E-18   3.10000000000000E-01   3.10000000000000E-01   0.00000000000000E+00   0.00000000000000E+00
      4.23834399704735E-11   7.45206489603720E-15   4.23908920353695E-11   1.76324070415185E-17   3.60000000000000E-01
      3.60000000000000E-01   0.00000000000000E+00   0.00000000000000E+00   0.00000000000000E+00   0.00000000000000E+00
      0.00000000000000E+00  -1.44979417620047E-17
      3.15000000000000E-01
      0.00000000000000E+00   0.00000000000000E+00   0.00000000000000E+00   0.00000000000000E+00  -1.49913139055500E-13
     -4.04218735984768E-11  -4.05717867375323E-11  -1.05613602025684E-17   1.26000000000000E-01   1.26000000000000E-01
      0.00000000000000E+00   0.00000000000000E+00   0.00000000000000E+00   0.00000000000000E+00   0.00000000000000E+00
      9.06480085303966E-18   3.10000000000000E-01   3.10000000000000E-01   0.00000000000000E+00   0.00000000000000E+00
      4.05643374883037E-11   7.44924922860817E-15   4.05717867375324E-11   1.75683233830578E-17   3.60000000000000E-01
      3.60000000000000E-01   0.00000000000000E+00   0.00000000000000E+00   0.00000000000000E+00   0.00000000000000E+00
      0.00000000000000E+00  -1.60717640335290E-17
      3.30000000000000E-01
      0.00000000000000E+00   0.00000000000000E+00   0.00000000000000E+00   0.00000000000000E+00  -1.51674186537580E-13
     -3.87935915705286E-11  -3.89452657570662E-11  -1.06282270848307E-17   1.32000000000000E-01   1.32000000000000E-01
      0.00000000000000E+00   0.00000000000000E+00   0.00000000000000E+00   0.00000000000000E+00   0.00000000000000E+00
      1.07696194980632E-17   3.10000000000000E-01   3.10000000000000E-01   0.00000000000000E+00   0.00000000000000E+00
      3.89378241307667E-11   7.44162629947931E-15   3.89452657570662E-11   1.75042352679707E-17   3.60000000000000E-01
      3.60000000000000E-01   0.00000000000000E+00   0.00000000000000E+00   0.00000000000000E+00   0.00000000000000E+00
      0.00000000000000E+00  -1.76456276812032E-17
      3.45000000000000E-01
      0.00000000000000E+00   0.00000000000000E+00   0.00000000000000E+00   0.00000000000000E+00  -1.53442834814660E-13
     -3.73427217168758E-11  -3.74961645516904E-11  -1.06950095210160E-17   1.38000000000000E-01   1.38000000000000E-01
      0.00000000000000E+00   0.00000000000000E+00   0.00000000000000E+00   0.00000000000000E+00   0.00000000000000E+00
      1.24743982256747E-17   3.10000000000000E-01   3.10000000000000E-01   0.00000000000000E+00   0.00000000000000E+00
      3.74887348234862E-11   7.42972820420480E-15   3.74961645516905E-11   1.74401425318623E-17   3.60000000000000E-01
      3.60000000000000E-01   0.00000000000000E+00   0.00000000000000E+00   0.00000000000000E+00   0.00000000000000E+00
      0.00000000000000E+00  -1.92195312365211E-17
      3.60000000000000E-01
      0.00000000000000E+00   0.00000000000000E+00   0.00000000000000E+00   0.00000000000000E+00  -1.55218969530679E-13
     -3.60554563656515E-11  -3.62106753351822E-11  -1.07617101899309E-17   1.44000000000000E-01   1.44000000000000E-01
      0.00000000000000E+00   0.00000000000000E+00   0.00000000000000E+00   0.00000000000000E+00   0.00000000000000E+00
      1.41791384566338E-17   3.10000000000000E-01   3.10000000000000E-01   0.00000000000000E+00   0.00000000000000E+00
      3.62032613036611E-11   7.41403152109171E-15   3.62106753351822E-11   1.73760450138972E-17   3.60000000000000E-01
      3.60000000000000E-01   0.00000000000000E+00   0.00000000000000E+00   0.00000000000000E+00   0.00000000000000E+00
      0.00000000000000E+00  -2.07934732806002E-17
      3.75000000000000E-01
      0.00000000000000E+00   0.00000000000000E+00   0.00000000000000E+00   0.00000000000000E+00  -1.57002477241162E-13
     -3.49192468256479E-11  -3.50762493028890E-11  -1.08283316777871E-17   1.50000000000000E-01   1.50000000000000E-01
      0.00000000000000E+00   0.00000000000000E+00   0.00000000000000E+00   0.00000000000000E+00   0.00000000000000E+00
      1.58838415638601E-17   3.10000000000000E-01   3.10000000000000E-01   0.00000000000000E+00   0.00000000000000E+00
      3.50688543406219E-11   7.39496226714485E-15   3.50762493028890E-11   1.73119425560410E-17   3.60000000000000E-01
      3.60000000000000E-01   0.00000000000000E+00   0.00000000000000E+00   0.00000000000000E+00   0.00000000000000E+00
      0.00000000000000E+00  -2.23674524421139E-17
      3.90000000000000E-01
      0.00000000000000E+00   0.00000000000000E+00   0.00000000000000E+00   0.00000000000000E+00  -1.58793245461301E-13
     -3.39227125666198E-11  -3.40815058120811E-11  -1.08948764815076E-17   1.56000000000000E-01   1.56000000000000E-01
      0.00000000000000E+00   0.00000000000000E+00   0.00000000000000E+00   0.00000000000000E+00   0.00000000000000E+00
      1.75885088744483E-17   3.10000000000000E-01   3.10000000000000E-01   0.00000000000000E+00   0.00000000000000E+00
      3.40741329109159E-11   7.37290116518686E-15   3.40815058120811E-11   1.72478350023748E-17   3.60000000000000E-01
      3.60000000000000E-01   0.00000000000000E+00   0.00000000000000E+00   0.00000000000000E+00   0.00000000000000E+00
      0.00000000000000E+00  -2.39414673953154E-17
      4.05000000000000E-01
      0.00000000000000E+00   0.00000000000000E+00   0.00000000000000E+00   0.00000000000000E+00  -1.60591162711521E-13
     -3.30555572654998E-11  -3.32161484282113E-11  -1.09613470119173E-17   1.62000000000000E-01   1.62000000000000E-01
      0.00000000000000E+00   0.00000000000000E+00   0.00000000000000E+00   0.00000000000000E+00   0.00000000000000E+00
      1.92931416715921E-17   3.10000000000000E-01   3.10000000000000E-01   0.00000000000000E+00   0.00000000000000E+00
      3.32088002399884E-11   7.34818822286131E-15   3.32161484282113E-11   1.71837221984730E-17   3.60000000000000E-01
      3.60000000000000E-01   0.00000000000000E+00   0.00000000000000E+00   0.00000000000000E+00   0.00000000000000E+00
      0.00000000000000E+00  -2.55155168581478E-17
      4.20000000000000E-01
      0.00000000000000E+00   0.00000000000000E+00   0.00000000000000E+00   0.00000000000000E+00  -1.62396118560790E-13
     -3.23084916320317E-11  -3.24708877505925E-11  -1.10277455968238E-17   1.68000000000000E-01   1.68000000000000E-01
      0.00000000000000E+00   0.00000000000000E+00   0.00000000000000E+00   0.00000000000000E+00   0.00000000000000E+00
      2.09977411964224E-17   3.10000000000000E-01   3.10000000000000E-01   0.00000000000000E+00   0.00000000000000E+00
      3.24635666240918E-11   7.32112650075545E-15   3.24708877505925E-11   1.71196039908373E-17   3.60000000000000E-01
      3.60000000000000E-01   0.00000000000000E+00   0.00000000000000E+00   0.00000000000000E+00   0.00000000000000E+00
      0.00000000000000E+00  -2.70895995904358E-17
      4.35000000000000E-01
      0.00000000000000E+00   0.00000000000000E+00   0.00000000000000E+00   0.00000000000000E+00  -1.64208003667889E-13
     -3.16731629317944E-11  -3.18373709354623E-11  -1.10940744839901E-17   1.74000000000000E-01   1.74000000000000E-01
      0.00000000000000E+00   0.00000000000000E+00   0.00000000000000E+00   0.00000000000000E+00   0.00000000000000E+00
      2.27023086497644E-17   3.10000000000000E-01   3.10000000000000E-01   0.00000000000000E+00   0.00000000000000E+00
      3.18300789491254E-11   7.29198633697245E-15   3.18373709354623E-11   1.70554802263801E-17   3.60000000000000E-01
      3.60000000000000E-01   0.00000000000000E+00   0.00000000000000E+00   0.00000000000000E+00   0.00000000000000E+00
      0.00000000000000E+00  -2.86637143921544E-17
      4.50000000000000E-01
      0.00000000000000E+00   0.00000000000000E+00   0.00000000000000E+00   0.00000000000000E+00  -1.66026709820762E-13
     -3.11420911260203E-11  -3.13081178358411E-11  -1.11603358440030E-17   1.80000000000000E-01   1.80000000000000E-01
      0.00000000000000E+00   0.00000000000000E+00   0.00000000000000E+00   0.00000000000000E+00   0.00000000000000E+00
      2.44068451938198E-17   3.10000000000000E-01   3.10000000000000E-01   0.00000000000000E+00   0.00000000000000E+00
      3.13008568276212E-11   7.26100821989179E-15   3.13081178358411E-11   1.69913507519518E-17   3.60000000000000E-01
      3.60000000000000E-01   0.00000000000000E+00   0.00000000000000E+00   0.00000000000000E+00   0.00000000000000E+00
      0.00000000000000E+00  -3.02378601017686E-17
      4.65000000000000E-01
      0.00000000000000E+00   0.00000000000000E+00   0.00000000000000E+00   0.00000000000000E+00  -1.67852129974052E-13
     -3.07086115571917E-11  -3.08764636871657E-11  -1.12265317730405E-17   1.86000000000000E-01   1.86000000000000E-01
      0.00000000000000E+00   0.00000000000000E+00   0.00000000000000E+00   0.00000000000000E+00   0.00000000000000E+00
      2.61113519537770E-17   3.10000000000000E-01   3.10000000000000E-01   0.00000000000000E+00   0.00000000000000E+00
      3.08692352809394E-11   7.22840622628561E-15   3.08764636871657E-11   1.69272154139062E-17   3.60000000000000E-01
      3.60000000000000E-01   0.00000000000000E+00   0.00000000000000E+00   0.00000000000000E+00   0.00000000000000E+00
      0.00000000000000E+00  -3.18120355946427E-17
      4.80000000000000E-01
      0.00000000000000E+00   0.00000000000000E+00   0.00000000000000E+00   0.00000000000000E+00  -1.69684158284848E-13
     -3.03668241131939E-11  -3.05365082714787E-11  -1.12926642955416E-17   1.92000000000000E-01   1.92000000000000E-01
      0.00000000000000E+00   0.00000000000000E+00   0.00000000000000E+00   0.00000000000000E+00   0.00000000000000E+00
      2.78158300193550E-17   3.10000000000000E-01   3.10000000000000E-01   0.00000000000000E+00   0.00000000000000E+00
      3.05293139008269E-11   7.19437065182989E-15   3.05365082714787E-11   1.68630740576999E-17   3.60000000000000E-01
      3.60000000000000E-01   0.00000000000000E+00   0.00000000000000E+00   0.00000000000000E+00   0.00000000000000E+00
      0.00000000000000E+00  -3.33862397815133E-17
      4.95000000000000E-01
      0.00000000000000E+00   0.00000000000000E+00   0.00000000000000E+00   0.00000000000000E+00  -1.71522690146601E-13
     -3.01115488130948E-11  -3.02830715032414E-11  -1.13587353667804E-17   1.98000000000000E-01   1.98000000000000E-01
      0.00000000000000E+00   0.00000000000000E+00   0.00000000000000E+00   0.00000000000000E+00   0.00000000000000E+00
      2.95202804462832E-17   3.10000000000000E-01   3.10000000000000E-01   0.00000000000000E+00   0.00000000000000E+00
      3.02759124326910E-11   7.15907055042182E-15   3.02830715032414E-11   1.67989265275205E-17   3.60000000000000E-01
      3.60000000000000E-01   0.00000000000000E+00   0.00000000000000E+00   0.00000000000000E+00   0.00000000000000E+00
      0.00000000000000E+00  -3.49604716070233E-17
      5.10000000000000E-01
      0.00000000000000E+00   0.00000000000000E+00   0.00000000000000E+00   0.00000000000000E+00  -1.73367622221163E-13
     -2.99382877658773E-11  -3.01116553880985E-11  -1.14247468753494E-17   2.04000000000000E-01   2.04000000000000E-01
      0.00000000000000E+00   0.00000000000000E+00   0.00000000000000E+00   0.00000000000000E+00   0.00000000000000E+00
      3.12247042577224E-17   3.10000000000000E-01   3.10000000000000E-01   0.00000000000000E+00   0.00000000000000E+00
      3.01045327321054E-11   7.12265599306216E-15   3.01116553880985E-11   1.67347726659410E-17   3.60000000000000E-01
      3.60000000000000E-01   0.00000000000000E+00   0.00000000000000E+00   0.00000000000000E+00   0.00000000000000E+00
      0.00000000000000E+00  -3.65347300483141E-17
      5.25000000000000E-01
      0.00000000000000E+00   0.00000000000000E+00   0.00000000000000E+00   0.00000000000000E+00  -1.75218852468814E-13
     -2.98431934636515E-11  -3.00184123161203E-11  -1.14907006455535E-17   2.10000000000000E-01   2.10000000000000E-01
      0.00000000000000E+00   0.00000000000000E+00   0.00000000000000E+00   0.00000000000000E+00   0.00000000000000E+00
      3.29291024456286E-17   3.10000000000000E-01   3.10000000000000E-01   0.00000000000000E+00   0.00000000000000E+00
      3.00113270560649E-11   7.08526005544524E-15   3.00184123161203E-11   1.66706123135967E-17   3.60000000000000E-01
      3.60000000000000E-01   0.00000000000000E+00   0.00000000000000E+00   0.00000000000000E+00   0.00000000000000E+00
      0.00000000000000E+00  -3.81090141136719E-17
      5.40000000000000E-01
      0.00000000000000E+00   0.00000000000000E+00   0.00000000000000E+00   0.00000000000000E+00  -1.77076280176146E-13
     -2.98230433817418E-11  -3.00001196619180E-11  -1.15565984397183E-17   2.16000000000000E-01   2.16000000000000E-01
      0.00000000000000E+00   0.00000000000000E+00   0.00000000000000E+00   0.00000000000000E+00   0.00000000000000E+00
      3.46334759720639E-17   3.10000000000000E-01   3.10000000000000E-01   0.00000000000000E+00   0.00000000000000E+00
      2.99930726611680E-11   7.04700074997729E-15   3.00001196619180E-11   1.66064453088808E-17   3.60000000000000E-01
      3.60000000000000E-01   0.00000000000000E+00   0.00000000000000E+00   0.00000000000000E+00   0.00000000000000E+00
      0.00000000000000E+00  -3.96833228412264E-17
      5.55000000000000E-01
      0.00000000000000E+00   0.00000000000000E+00   0.00000000000000E+00   0.00000000000000E+00  -1.78939805981634E-13