DF-ISE text

Info {
  version   = 1.0
  type      = xyplot
  datasets  = [
    "time"
    "source OuterVoltage" "source InnerVoltage" "source QuasiFermiPotential" "source DisplacementCurrent" "source eCurrent"
    "source hCurrent" "source TotalCurrent" "source Charge" "topGate OuterVoltage" "topGate InnerVoltage"
    "topGate QuasiFermiPotential" "topGate DisplacementCurrent" "topGate eCurrent" "topGate hCurrent" "topGate TotalCurrent"
    "topGate Charge" "drain OuterVoltage" "drain InnerVoltage" "drain QuasiFermiPotential" "drain DisplacementCurrent"
    "drain eCurrent" "drain hCurrent" "drain TotalCurrent" "drain Charge" "bottomGate OuterVoltage"
    "bottomGate InnerVoltage" "bottomGate QuasiFermiPotential" "bottomGate DisplacementCurrent" "bottomGate eCurrent" "bottomGate hCurrent"
    "bottomGate TotalCurrent" "bottomGate Charge" ]
  functions = [
    Time
    OuterVoltage InnerVoltage QuasiFermiPotential DisplacementCurrent eCurrent
    hCurrent TotalCurrent Charge OuterVoltage InnerVoltage
    QuasiFermiPotential DisplacementCurrent eCurrent hCurrent TotalCurrent
    Charge OuterVoltage InnerVoltage QuasiFermiPotential DisplacementCurrent
    eCurrent hCurrent TotalCurrent Charge OuterVoltage
    InnerVoltage QuasiFermiPotential DisplacementCurrent eCurrent hCurrent
    TotalCurrent Charge ]
}

Data {
      1.50000000000000E-02
      0.00000000000000E+00   0.00000000000000E+00   0.00000000000000E+00   0.00000000000000E+00  -1.20657751984687E-13
     -1.16706561991019E-12  -1.28772337189487E-12  -9.54596695763829E-18   6.00000000000000E-03   6.00000000000000E-03
      0.00000000000000E+00   0.00000000000000E+00   0.00000000000000E+00   0.00000000000000E+00   0.00000000000000E+00
     -3.05505245772684E-17   9.00000000000000E-02   9.00000000000000E-02   0.00000000000000E+00   0.00000000000000E+00
      1.28269477010083E-12   5.02860179404638E-15   1.28772337189487E-12   1.38165146655261E-17   3.90000000000000E-01
      3.90000000000000E-01   0.00000000000000E+00   0.00000000000000E+00   0.00000000000000E+00   0.00000000000000E+00
      0.00000000000000E+00   2.62799768693805E-17
      3.00000000000000E-02
      0.00000000000000E+00   0.00000000000000E+00   0.00000000000000E+00   0.00000000000000E+00  -1.22240352555877E-13
     -9.71011794100176E-13  -1.09325214665605E-12  -9.61449679520678E-18   1.20000000000000E-02   1.20000000000000E-02
      0.00000000000000E+00   0.00000000000000E+00   0.00000000000000E+00   0.00000000000000E+00   0.00000000000000E+00
     -2.88445521504136E-17   9.00000000000000E-02   9.00000000000000E-02   0.00000000000000E+00   0.00000000000000E+00
      1.08826499109176E-12   4.98715556429861E-15   1.09325214665606E-12   1.37517832722462E-17   3.90000000000000E-01
      3.90000000000000E-01   0.00000000000000E+00   0.00000000000000E+00   0.00000000000000E+00   0.00000000000000E+00
      0.00000000000000E+00   2.47072656733742E-17
      4.50000000000000E-02
      0.00000000000000E+00   0.00000000000000E+00   0.00000000000000E+00   0.00000000000000E+00  -1.23832050770379E-13
     -8.06370381230138E-13  -9.30202432000517E-13  -9.68288824055468E-18   1.80000000000000E-02   1.80000000000000E-02
      0.00000000000000E+00   0.00000000000000E+00   0.00000000000000E+00   0.00000000000000E+00   0.00000000000000E+00
     -2.71386402053132E-17   9.00000000000000E-02   9.00000000000000E-02   0.00000000000000E+00   0.00000000000000E+00
      9.25256657301432E-13   4.94577469908508E-15   9.30202432000517E-13   1.36870342619409E-17   3.90000000000000E-01
      3.90000000000000E-01   0.00000000000000E+00   0.00000000000000E+00   0.00000000000000E+00   0.00000000000000E+00
      0.00000000000000E+00   2.31344941839269E-17
      6.00000000000000E-02
      0.00000000000000E+00   0.00000000000000E+00   0.00000000000000E+00   0.00000000000000E+00  -1.25432730665018E-13
     -6.68538843586704E-13  -7.93971574251722E-13  -9.75114584741435E-18   2.40000000000000E-02   2.40000000000000E-02
      0.00000000000000E+00   0.00000000000000E+00   0.00000000000000E+00   0.00000000000000E+00   0.00000000000000E+00
     -2.54327860119547E-17   9.00000000000000E-02   9.00000000000000E-02   0.00000000000000E+00   0.00000000000000E+00
      7.89067114010544E-13   4.90446024117808E-15   7.93971574251722E-13   1.36222667533535E-17   3.90000000000000E-01
      3.90000000000000E-01   0.00000000000000E+00   0.00000000000000E+00   0.00000000000000E+00   0.00000000000000E+00
      0.00000000000000E+00   2.15616651060155E-17
      7.50000000000000E-02
      0.00000000000000E+00   0.00000000000000E+00   0.00000000000000E+00   0.00000000000000E+00  -1.27042275864919E-13
     -5.53515504518907E-13  -6.80557780383826E-13  -9.81927401118600E-18   3.00000000000000E-02   3.00000000000000E-02
      0.00000000000000E+00   0.00000000000000E+00   0.00000000000000E+00   0.00000000000000E+00   0.00000000000000E+00
     -2.37269869299870E-17   9.00000000000000E-02   9.00000000000000E-02   0.00000000000000E+00   0.00000000000000E+00
      6.75694565963080E-13   4.86321442074547E-15   6.80557780383825E-13   1.35574798829877E-17   3.90000000000000E-01
      3.90000000000000E-01   0.00000000000000E+00   0.00000000000000E+00   0.00000000000000E+00   0.00000000000000E+00
      0.00000000000000E+00   1.99887810581854E-17
      9.00000000000000E-02
      0.00000000000000E+00   0.00000000000000E+00   0.00000000000000E+00   0.00000000000000E+00  -1.28660569740205E-13
     -4.57832891524350E-13  -5.86493461264554E-13  -9.88727697437796E-18   3.60000000000000E-02   3.60000000000000E-02
      0.00000000000000E+00   0.00000000000000E+00   0.00000000000000E+00   0.00000000000000E+00   0.00000000000000E+00
     -2.20212404034616E-17   9.00000000000000E-02   9.00000000000000E-02   0.00000000000000E+00   0.00000000000000E+00
      5.81671422452809E-13   4.82203881174511E-15   5.86493461264554E-13   1.34926728004412E-17   3.90000000000000E-01
      3.90000000000000E-01   0.00000000000000E+00   0.00000000000000E+00   0.00000000000000E+00   0.00000000000000E+00
      0.00000000000000E+00   1.84158445773983E-17
      1.05000000000000E-01
      0.00000000000000E+00   0.00000000000000E+00   0.00000000000000E+00   0.00000000000000E+00  -1.30287495547832E-13
     -3.78496848781082E-13  -5.08784344328914E-13  -9.95515883188154E-18   4.20000000000000E-02   4.20000000000000E-02
      0.00000000000000E+00   0.00000000000000E+00   0.00000000000000E+00   0.00000000000000E+00   0.00000000000000E+00
     -2.03155439559001E-17   9.00000000000000E-02   9.00000000000000E-02   0.00000000000000E+00   0.00000000000000E+00
      5.04003409652198E-13   4.78093467671553E-15   5.08784344328914E-13   1.34278446641758E-17   3.90000000000000E-01
      3.90000000000000E-01   0.00000000000000E+00   0.00000000000000E+00   0.00000000000000E+00   0.00000000000000E+00
      0.00000000000000E+00   1.68428581236058E-17
      1.20000000000000E-01
      0.00000000000000E+00   0.00000000000000E+00   0.00000000000000E+00   0.00000000000000E+00  -1.31922936561639E-13
     -3.12931119478676E-13  -4.44854056040315E-13  -1.00229235360838E-17   4.80000000000000E-02   4.80000000000000E-02
      0.00000000000000E+00   0.00000000000000E+00   0.00000000000000E+00   0.00000000000000E+00   0.00000000000000E+00
     -1.86098951856572E-17   9.00000000000000E-02   9.00000000000000E-02   0.00000000000000E+00   0.00000000000000E+00
      4.40114152356212E-13   4.73990368410184E-15   4.44854056040314E-13   1.33629946376685E-17   3.90000000000000E-01
      3.90000000000000E-01   0.00000000000000E+00   0.00000000000000E+00   0.00000000000000E+00   0.00000000000000E+00
      0.00000000000000E+00   1.52698240840725E-17
      1.35000000000000E-01
      0.00000000000000E+00   0.00000000000000E+00   0.00000000000000E+00   0.00000000000000E+00  -1.33566776189497E-13
     -2.58927095145662E-13  -3.92493871335159E-13  -1.00905749018206E-17   5.40000000000000E-02   5.40000000000000E-02
      0.00000000000000E+00   0.00000000000000E+00   0.00000000000000E+00   0.00000000000000E+00   0.00000000000000E+00
     -1.69042917615494E-17   9.00000000000000E-02   9.00000000000000E-02   0.00000000000000E+00   0.00000000000000E+00
      3.87794923582959E-13   4.69894775219974E-15   3.92493871335159E-13   1.32981218858975E-17   3.90000000000000E-01
      3.90000000000000E-01   0.00000000000000E+00   0.00000000000000E+00   0.00000000000000E+00   0.00000000000000E+00
      0.00000000000000E+00   1.36967447774726E-17
      1.50000000000000E-01
      0.00000000000000E+00   0.00000000000000E+00   0.00000000000000E+00   0.00000000000000E+00  -1.35218898080819E-13
     -2.14598428933469E-13  -3.49817327014288E-13  -1.01581166111743E-17   6.00000000000000E-02   6.00000000000000E-02
      0.00000000000000E+00   0.00000000000000E+00   0.00000000000000E+00   0.00000000000000E+00   0.00000000000000E+00
     -1.51987314187245E-17   9.00000000000000E-02   9.00000000000000E-02   0.00000000000000E+00   0.00000000000000E+00
      3.45159258941401E-13   4.65806807288733E-15   3.49817327014289E-13   1.32332255721183E-17   3.90000000000000E-01
      3.90000000000000E-01   0.00000000000000E+00   0.00000000000000E+00   0.00000000000000E+00   0.00000000000000E+00
      0.00000000000000E+00   1.21236224577805E-17
      1.65000000000000E-01
      0.00000000000000E+00   0.00000000000000E+00   0.00000000000000E+00   0.00000000000000E+00  -1.36879186225036E-13
     -1.78340213653997E-13  -3.15219399879033E-13  -1.02255522181174E-17   6.60000000000000E-02   6.60000000000000E-02
      0.00000000000000E+00   0.00000000000000E+00   0.00000000000000E+00   0.00000000000000E+00   0.00000000000000E+00
     -1.34932119547495E-17   9.00000000000000E-02   9.00000000000000E-02   0.00000000000000E+00   0.00000000000000E+00
      3.10602133376614E-13   4.61726650241985E-15   3.15219399879033E-13   1.31683048548941E-17   3.90000000000000E-01
      3.90000000000000E-01   0.00000000000000E+00   0.00000000000000E+00   0.00000000000000E+00   0.00000000000000E+00
      0.00000000000000E+00   1.05504593179728E-17
      1.80000000000000E-01
      0.00000000000000E+00   0.00000000000000E+00   0.00000000000000E+00   0.00000000000000E+00  -1.38547525041636E-13
     -1.48792420497211E-13  -2.87339945538847E-13  -1.02928851530078E-17   7.20000000000000E-02   7.20000000000000E-02
      0.00000000000000E+00   0.00000000000000E+00   0.00000000000000E+00   0.00000000000000E+00   0.00000000000000E+00
     -1.17877312258964E-17   9.00000000000000E-02   9.00000000000000E-02   0.00000000000000E+00   0.00000000000000E+00
      2.82763400873520E-13   4.57654466532635E-15   2.87339945538847E-13   1.31033588853448E-17   3.90000000000000E-01
      3.90000000000000E-01   0.00000000000000E+00   0.00000000000000E+00   0.00000000000000E+00   0.00000000000000E+00
      0.00000000000000E+00   8.97725749355939E-18
      1.95000000000000E-01
      0.00000000000000E+00   0.00000000000000E+00   0.00000000000000E+00   0.00000000000000E+00  -1.40223799461844E-13
     -1.24807307467255E-13  -2.65031106929099E-13  -1.03601187269375E-17   7.80000000000000E-02   7.80000000000000E-02
      0.00000000000000E+00   0.00000000000000E+00   0.00000000000000E+00   0.00000000000000E+00   0.00000000000000E+00
     -1.00822871436070E-17   9.00000000000000E-02   9.00000000000000E-02   0.00000000000000E+00   0.00000000000000E+00
      2.60495202942757E-13   4.53590398634199E-15   2.65031106929099E-13   1.30383868045867E-17   3.90000000000000E-01
      3.90000000000000E-01   0.00000000000000E+00   0.00000000000000E+00   0.00000000000000E+00   0.00000000000000E+00
      0.00000000000000E+00   7.40401906595780E-18
      2.10000000000000E-01
      0.00000000000000E+00   0.00000000000000E+00   0.00000000000000E+00   0.00000000000000E+00  -1.41907895004771E-13
     -1.05420510392409E-13  -2.47328405397180E-13  -1.04272561359389E-17   8.40000000000000E-02   8.40000000000000E-02
      0.00000000000000E+00   0.00000000000000E+00   0.00000000000000E+00   0.00000000000000E+00   0.00000000000000E+00
     -8.37687767112123E-18   9.00000000000000E-02   9.00000000000000E-02   0.00000000000000E+00   0.00000000000000E+00
      2.42833059213296E-13   4.49534618388448E-15   2.47328405397180E-13   1.29733877413350E-17   3.90000000000000E-01
      3.90000000000000E-01   0.00000000000000E+00   0.00000000000000E+00   0.00000000000000E+00   0.00000000000000E+00
      0.00000000000000E+00   5.83074606572507E-18
      2.25000000000000E-01
      0.00000000000000E+00   0.00000000000000E+00   0.00000000000000E+00   0.00000000000000E+00  -1.43599697846705E-13
     -8.98255382682641E-14  -2.33425236114969E-13  -1.04943004650518E-17   9.00000000000000E-02   9.00000000000000E-02
      0.00000000000000E+00   0.00000000000000E+00   0.00000000000000E+00   0.00000000000000E+00   0.00000000000000E+00
     -6.67150082025246E-18   9.00000000000000E-02   9.00000000000000E-02   0.00000000000000E+00   0.00000000000000E+00
      2.28970363163316E-13   4.45487295165322E-15   2.33425236114969E-13   1.29083608096451E-17   3.90000000000000E-01
      3.90000000000000E-01   0.00000000000000E+00   0.00000000000000E+00   0.00000000000000E+00   0.00000000000000E+00
      0.00000000000000E+00   4.25744047565910E-18
      2.40000000000000E-01
      0.00000000000000E+00   0.00000000000000E+00   0.00000000000000E+00   0.00000000000000E+00  -1.45299094883690E-13
     -7.73514088891128E-14  -2.22650503772803E-13  -1.05612546922553E-17   9.60000000000000E-02   9.60000000000000E-02
      0.00000000000000E+00   0.00000000000000E+00   0.00000000000000E+00   0.00000000000000E+00   0.00000000000000E+00
     -4.96615464829821E-18   9.00000000000000E-02   9.00000000000000E-02   0.00000000000000E+00   0.00000000000000E+00
      2.18236017878970E-13   4.41448589383315E-15   2.22650503772803E-13   1.28433051067726E-17   3.90000000000000E-01
      3.90000000000000E-01   0.00000000000000E+00   0.00000000000000E+00   0.00000000000000E+00   0.00000000000000E+00
      0.00000000000000E+00   2.68410423378097E-18
      2.55000000000000E-01
      0.00000000000000E+00   0.00000000000000E+00   0.00000000000000E+00   0.00000000000000E+00  -1.47005973790260E-13
     -6.74431734891733E-14  -2.14449147279434E-13  -1.06281216922678E-17   1.02000000000000E-01   1.02000000000000E-01
      0.00000000000000E+00   0.00000000000000E+00   0.00000000000000E+00   0.00000000000000E+00   0.00000000000000E+00
     -3.26083725507237E-18   9.00000000000000E-02   9.00000000000000E-02   0.00000000000000E+00   0.00000000000000E+00
      2.10074960643802E-13   4.37418663563198E-15   2.14449147279434E-13   1.27782197111317E-17   3.90000000000000E-01
      3.90000000000000E-01   0.00000000000000E+00   0.00000000000000E+00   0.00000000000000E+00   0.00000000000000E+00
      0.00000000000000E+00   1.11073923620848E-18
      2.70000000000000E-01
      0.00000000000000E+00   0.00000000000000E+00   0.00000000000000E+00   0.00000000000000E+00  -1.48720223072967E-13
     -5.96450948156743E-14  -2.08365317888641E-13  -1.06949042402179E-17   1.08000000000000E-01   1.08000000000000E-01
      0.00000000000000E+00   0.00000000000000E+00   0.00000000000000E+00   0.00000000000000E+00   0.00000000000000E+00
     -1.55554678004863E-18   9.00000000000000E-02   9.00000000000000E-02   0.00000000000000E+00   0.00000000000000E+00
      2.04031341004543E-13   4.33397688409850E-15   2.08365317888641E-13   1.27131036803362E-17   3.90000000000000E-01
      3.90000000000000E-01   0.00000000000000E+00   0.00000000000000E+00   0.00000000000000E+00   0.00000000000000E+00
      0.00000000000000E+00  -4.62652660069713E-19
      2.85000000000000E-01
      0.00000000000000E+00   0.00000000000000E+00   0.00000000000000E+00   0.00000000000000E+00  -1.50441732117844E-13
     -5.35862607316611E-14  -2.04027992849506E-13  -1.07616050151913E-17   1.14000000000000E-01   1.14000000000000E-01
      0.00000000000000E+00   0.00000000000000E+00   0.00000000000000E+00   0.00000000000000E+00   0.00000000000000E+00
      1.49718600395434E-19   9.00000000000000E-02   9.00000000000000E-02   0.00000000000000E+00   0.00000000000000E+00
      1.99734134602508E-13   4.29385824699717E-15   2.04027992849506E-13   1.26479560493063E-17   3.90000000000000E-01
      3.90000000000000E-01   0.00000000000000E+00   0.00000000000000E+00   0.00000000000000E+00   0.00000000000000E+00
      0.00000000000000E+00  -2.03606963451042E-18
      3.00000000000000E-01
      0.00000000000000E+00   0.00000000000000E+00   0.00000000000000E+00   0.00000000000000E+00  -1.52170391236330E-13
     -4.89684355083547E-14  -2.01138826744684E-13  -1.08282266036561E-17   1.20000000000000E-01   1.20000000000000E-01
      0.00000000000000E+00   0.00000000000000E+00   0.00000000000000E+00   0.00000000000000E+00   0.00000000000000E+00
      1.85496067564282E-18   9.00000000000000E-02   9.00000000000000E-02   0.00000000000000E+00   0.00000000000000E+00
      1.96884994340185E-13   4.25383240449982E-15   2.01138826744684E-13   1.25827758284283E-17   3.90000000000000E-01
      3.90000000000000E-01   0.00000000000000E+00   0.00000000000000E+00   0.00000000000000E+00   0.00000000000000E+00
      0.00000000000000E+00  -3.60950990041503E-18
      3.15000000000000E-01
      0.00000000000000E+00   0.00000000000000E+00   0.00000000000000E+00   0.00000000000000E+00  -1.53906091705522E-13
     -4.55559704692594E-14  -1.99462062174781E-13  -1.08947715027698E-17   1.26000000000000E-01   1.26000000000000E-01
      0.00000000000000E+00   0.00000000000000E+00   0.00000000000000E+00   0.00000000000000E+00   0.00000000000000E+00
      3.56018120341885E-18   9.00000000000000E-02   9.00000000000000E-02   0.00000000000000E+00   0.00000000000000E+00
      1.95248161166125E-13   4.21390100865616E-15   1.99462062174781E-13   1.25175620017545E-17   3.90000000000000E-01
      3.90000000000000E-01   0.00000000000000E+00   0.00000000000000E+00   0.00000000000000E+00   0.00000000000000E+00
      0.00000000000000E+00  -5.18297170240362E-18
      3.30000000000000E-01
      0.00000000000000E+00   0.00000000000000E+00   0.00000000000000E+00   0.00000000000000E+00  -1.55648725805380E-13
     -4.31676186599368E-14  -1.98816344465317E-13  -1.09612421235722E-17   1.32000000000000E-01   1.32000000000000E-01
      0.00000000000000E+00   0.00000000000000E+00   0.00000000000000E+00   0.00000000000000E+00   0.00000000000000E+00
      5.26538191229805E-18   9.00000000000000E-02   9.00000000000000E-02   0.00000000000000E+00   0.00000000000000E+00
      1.94642278733943E-13   4.17406573137412E-15   1.98816344465317E-13   1.24523135252315E-17   3.90000000000000E-01
      3.90000000000000E-01   0.00000000000000E+00   0.00000000000000E+00   0.00000000000000E+00   0.00000000000000E+00
      0.00000000000000E+00  -6.75645331395737E-18
      3.45000000000000E-01
      0.00000000000000E+00   0.00000000000000E+00   0.00000000000000E+00   0.00000000000000E+00  -1.57398186853510E-13
     -4.16701205146195E-14  -1.99068307368129E-13  -1.10276407940674E-17   1.38000000000000E-01   1.38000000000000E-01
      0.00000000000000E+00   0.00000000000000E+00   0.00000000000000E+00   0.00000000000000E+00   0.00000000000000E+00
      6.97056450414363E-18   9.00000000000000E-02   9.00000000000000E-02   0.00000000000000E+00   0.00000000000000E+00
      1.94933979180088E-13   4.13432818804180E-15   1.99068307368129E-13   1.23870293249465E-17   3.90000000000000E-01
      3.90000000000000E-01   0.00000000000000E+00   0.00000000000000E+00   0.00000000000000E+00   0.00000000000000E+00
      0.00000000000000E+00  -8.32995303502278E-18
      3.60000000000000E-01
      0.00000000000000E+00   0.00000000000000E+00   0.00000000000000E+00   0.00000000000000E+00  -1.59154369236017E-13
     -4.09734518365966E-14  -2.00127821072614E-13  -1.10939697621976E-17   1.44000000000000E-01   1.44000000000000E-01
      0.00000000000000E+00   0.00000000000000E+00   0.00000000000000E+00   0.00000000000000E+00   0.00000000000000E+00
      8.67573065648641E-18   9.00000000000000E-02   9.00000000000000E-02   0.00000000000000E+00   0.00000000000000E+00
      1.96033131047934E-13   4.09469002467998E-15   2.00127821072614E-13   1.23217082953827E-17   3.90000000000000E-01
      3.90000000000000E-01   0.00000000000000E+00   0.00000000000000E+00   0.00000000000000E+00   0.00000000000000E+00
      0.00000000000000E+00  -9.90346918967150E-18
      3.75000000000000E-01
      0.00000000000000E+00   0.00000000000000E+00   0.00000000000000E+00   0.00000000000000E+00  -1.60917168437436E-13
     -4.10276491853477E-14  -2.01944817622783E-13  -1.11602311987131E-17   1.50000000000000E-01   1.50000000000000E-01
      0.00000000000000E+00   0.00000000000000E+00   0.00000000000000E+00   0.00000000000000E+00   0.00000000000000E+00
      1.03808820248496E-17   9.00000000000000E-02   9.00000000000000E-02   0.00000000000000E+00   0.00000000000000E+00
      1.97889664730503E-13   4.05515289228066E-15   2.01944817622784E-13   1.22563492976737E-17   3.90000000000000E-01
      3.90000000000000E-01   0.00000000000000E+00   0.00000000000000E+00   0.00000000000000E+00   0.00000000000000E+00
      0.00000000000000E+00  -1.14770001238102E-17
      3.90000000000000E-01
      0.00000000000000E+00   0.00000000000000E+00   0.00000000000000E+00   0.00000000000000E+00  -1.62686481065539E-13
     -4.18211527895835E-14  -2.04507633855122E-13  -1.12264271999401E-17   1.56000000000000E-01   1.56000000000000E-01
      0.00000000000000E+00   0.00000000000000E+00   0.00000000000000E+00   0.00000000000000E+00   0.00000000000000E+00
      1.20860202450256E-17   9.00000000000000E-02   9.00000000000000E-02   0.00000000000000E+00   0.00000000000000E+00
      2.00491915450080E-13   4.01571840504212E-15   2.04507633855122E-13   1.21909511578496E-17   3.90000000000000E-01
      3.90000000000000E-01   0.00000000000000E+00   0.00000000000000E+00   0.00000000000000E+00   0.00000000000000E+00
      0.00000000000000E+00  -1.30505442029351E-17
      4.05000000000000E-01
      0.00000000000000E+00   0.00000000000000E+00   0.00000000000000E+00   0.00000000000000E+00  -1.64462204877551E-13
     -4.33806318311160E-14  -2.07842836708667E-13  -1.12925597904517E-17   1.62000000000000E-01   1.62000000000000E-01
      0.00000000000000E+00   0.00000000000000E+00   0.00000000000000E+00   0.00000000000000E+00   0.00000000000000E+00
      1.37911469353102E-17   9.00000000000000E-02   9.00000000000000E-02   0.00000000000000E+00   0.00000000000000E+00
      2.03866448527839E-13   3.97638818082739E-15   2.07842836708667E-13   1.21255126650672E-17   3.90000000000000E-01
      3.90000000000000E-01   0.00000000000000E+00   0.00000000000000E+00   0.00000000000000E+00   0.00000000000000E+00
      0.00000000000000E+00  -1.46240998099257E-17
      4.20000000000000E-01
      0.00000000000000E+00   0.00000000000000E+00   0.00000000000000E+00   0.00000000000000E+00  -1.66244238802011E-13
     -4.57722812054555E-14  -2.12016520007467E-13  -1.13586309256432E-17   1.68000000000000E-01   1.68000000000000E-01
      0.00000000000000E+00   0.00000000000000E+00   0.00000000000000E+00   0.00000000000000E+00   0.00000000000000E+00
      1.54962636987005E-17   9.00000000000000E-02   9.00000000000000E-02   0.00000000000000E+00   0.00000000000000E+00
      2.08079356242836E-13   3.93716376463115E-15   2.12016520007467E-13   1.20600325698159E-17   3.90000000000000E-01
      3.90000000000000E-01   0.00000000000000E+00   0.00000000000000E+00   0.00000000000000E+00   0.00000000000000E+00
      0.00000000000000E+00  -1.61976653428733E-17
      4.35000000000000E-01
      0.00000000000000E+00   0.00000000000000E+00   0.00000000000000E+00   0.00000000000000E+00  -1.68032482958176E-13
     -4.91046034772972E-14  -2.17137086435473E-13  -1.14246424942154E-17   1.74000000000000E-01   1.74000000000000E-01
      0.00000000000000E+00   0.00000000000000E+00   0.00000000000000E+00   0.00000000000000E+00   0.00000000000000E+00
      1.72013721250604E-17   9.00000000000000E-02   9.00000000000000E-02   0.00000000000000E+00   0.00000000000000E+00
      2.13239039752880E-13   3.89804668259293E-15   2.17137086435473E-13   1.19945095820940E-17   3.90000000000000E-01
      3.90000000000000E-01   0.00000000000000E+00   0.00000000000000E+00   0.00000000000000E+00   0.00000000000000E+00
      0.00000000000000E+00  -1.77712392129389E-17
      4.50000000000000E-01
      0.00000000000000E+00   0.00000000000000E+00   0.00000000000000E+00   0.00000000000000E+00  -1.69826838678950E-13
     -5.35327128965468E-14  -2.23359551575497E-13  -1.14905963205699E-17   1.80000000000000E-01   1.80000000000000E-01
      0.00000000000000E+00   0.00000000000000E+00   0.00000000000000E+00   0.00000000000000E+00   0.00000000000000E+00
      1.89064737932600E-17   9.00000000000000E-02   9.00000000000000E-02   0.00000000000000E+00   0.00000000000000E+00
      2.19500513112228E-13   3.85903846326874E-15   2.23359551575497E-13   1.19289423695471E-17   3.90000000000000E-01
      3.90000000000000E-01   0.00000000000000E+00   0.00000000000000E+00   0.00000000000000E+00   0.00000000000000E+00
      0.00000000000000E+00  -1.93448198422371E-17
      4.65000000000000E-01
      0.00000000000000E+00   0.00000000000000E+00   0.00000000000000E+00   0.00000000000000E+00  -1.71627208524857E-13
     -5.92642211756940E-14  -2.30891429700551E-13  -1.15564941671172E-17   1.86000000000000E-01   1.86000000000000E-01
      0.00000000000000E+00   0.00000000000000E+00   0.00000000000000E+00   0.00000000000000E+00   0.00000000000000E+00
      2.06115702732931E-17   9.00000000000000E-02   9.00000000000000E-02   0.00000000000000E+00   0.00000000000000E+00
      2.27071289155922E-13   3.82014054462935E-15   2.30891429700551E-13   1.18633295555638E-17   3.90000000000000E-01
      3.90000000000000E-01   0.00000000000000E+00   0.00000000000000E+00   0.00000000000000E+00   0.00000000000000E+00
      0.00000000000000E+00  -2.09184056617397E-17
      4.80000000000000E-01
      0.00000000000000E+00   0.00000000000000E+00   0.00000000000000E+00   0.00000000000000E+00  -1.73433496300396E-13
     -6.65667868164925E-14  -2.40000283116888E-13  -1.16223377365026E-17   1.92000000000000E-01   1.92000000000000E-01
      0.00000000000000E+00   0.00000000000000E+00   0.00000000000000E+00   0.00000000000000E+00   0.00000000000000E+00
      2.23166631283779E-17   9.00000000000000E-02   9.00000000000000E-02   0.00000000000000E+00   0.00000000000000E+00
      2.36218928814561E-13   3.78135430232752E-15   2.40000283116888E-13   1.17976697173208E-17   3.90000000000000E-01
      3.90000000000000E-01   0.00000000000000E+00   0.00000000000000E+00   0.00000000000000E+00   0.00000000000000E+00
      0.00000000000000E+00  -2.24919951091961E-17
      4.95000000000000E-01
      0.00000000000000E+00   0.00000000000000E+00   0.00000000000000E+00   0.00000000000000E+00  -1.75245607074390E-13
     -7.57774300467086E-14  -2.51023037121099E-13  -1.16881286737512E-17   1.98000000000000E-01   1.98000000000000E-01
      0.00000000000000E+00   0.00000000000000E+00   0.00000000000000E+00   0.00000000000000E+00   0.00000000000000E+00
      2.40217539170447E-17   9.00000000000000E-02   9.00000000000000E-02   0.00000000000000E+00   0.00000000000000E+00
      2.47280356043059E-13   3.74268107803974E-15   2.51023037121099E-13   1.17319613837733E-17   3.90000000000000E-01
      3.90000000000000E-01   0.00000000000000E+00   0.00000000000000E+00   0.00000000000000E+00   0.00000000000000E+00
      0.00000000000000E+00  -2.40655866270669E-17
      5.10000000000000E-01
      0.00000000000000E+00   0.00000000000000E+00   0.00000000000000E+00   0.00000000000000E+00  -1.77063447186295E-13
     -8.73137347772215E-14  -2.64377181963517E-13  -1.17538685683355E-17   2.04000000000000E-01   2.04000000000000E-01
      0.00000000000000E+00   0.00000000000000E+00   0.00000000000000E+00   0.00000000000000E+00   0.00000000000000E+00
      2.57268441952166E-17   9.00000000000000E-02   9.00000000000000E-02   0.00000000000000E+00   0.00000000000000E+00
      2.60673059881700E-13   3.70412208181699E-15   2.64377181963517E-13   1.16662030335821E-17   3.90000000000000E-01
      3.90000000000000E-01   0.00000000000000E+00   0.00000000000000E+00   0.00000000000000E+00   0.00000000000000E+00
      0.00000000000000E+00  -2.56391786604632E-17
      5.25000000000000E-01
      0.00000000000000E+00   0.00000000000000E+00   0.00000000000000E+00   0.00000000000000E+00  -1.78886924263030E-13
     -1.01687077363902E-13  -2.80574001626932E-13  -1.18195589561680E-17   2.10000000000000E-01   2.10000000000000E-01
      0.00000000000000E+00   0.00000000000000E+00   0.00000000000000E+00   0.00000000000000E+00   0.00000000000000E+00
      2.74319355182865E-17   9.00000000000000E-02   9.00000000000000E-02   0.00000000000000E+00   0.00000000000000E+00
      2.76908323178161E-13   3.66567844877184E-15   2.80574001626932E-13   1.16003930929735E-17   3.90000000000000E-01
      3.90000000000000E-01   0.00000000000000E+00   0.00000000000000E+00   0.00000000000000E+00   0.00000000000000E+00
      0.00000000000000E+00  -2.72127696550921E-17
      5.40000000000000E-01
      0.00000000000000E+00   0.00000000000000E+00   0.00000000000000E+00   0.00000000000000E+00  -1.80715947229103E-13
     -1.19518037897383E-13  -3.00233985126486E-13  -1.18852013215206E-17   2.16000000000000E-01   2.16000000000000E-01
      0.00000000000000E+00   0.00000000000000E+00   0.00000000000000E+00   0.00000000000000E+00   0.00000000000000E+00
      2.91370294431961E-17   9.00000000000000E-02   9.00000000000000E-02   0.00000000000000E+00   0.00000000000000E+00
      2.96606633949878E-13   3.62735117660789E-15   3.00233985126486E-13   1.15345299335243E-17   3.90000000000000E-01
      3.90000000000000E-01   0.00000000000000E+00   0.00000000000000E+00   0.00000000000000E+00   0.00000000000000E+00
      0.00000000000000E+00  -2.87863580551998E-17
      5.55000000000000E-01
      0.00000000000000E+00   0.00000000000000E+00   0.00000000000000E+00   0.00000000000000E+00  -1.82550426314951E-13