DF-ISE text

Info {
  version   = 1.0
  type      = xyplot
  datasets  = [
    "time"
    "source OuterVoltage" "source InnerVoltage" "source QuasiFermiPotential" "source DisplacementCurrent" "source eCurrent"
    "source hCurrent" "source TotalCurrent" "source Charge" "topGate OuterVoltage" "topGate InnerVoltage"
    "topGate QuasiFermiPotential" "topGate DisplacementCurrent" "topGate eCurrent" "topGate hCurrent" "topGate TotalCurrent"
    "topGate Charge" "drain OuterVoltage" "drain InnerVoltage" "drain QuasiFermiPotential" "drain DisplacementCurrent"
    "drain eCurrent" "drain hCurrent" "drain TotalCurrent" "drain Charge" "bottomGate OuterVoltage"
    "bottomGate InnerVoltage" "bottomGate QuasiFermiPotential" "bottomGate DisplacementCurrent" "bottomGate eCurrent" "bottomGate hCurrent"
    "bottomGate TotalCurrent" "bottomGate Charge" ]
  functions = [
    Time
    OuterVoltage InnerVoltage QuasiFermiPotential DisplacementCurrent eCurrent
    hCurrent TotalCurrent Charge OuterVoltage InnerVoltage
    QuasiFermiPotential DisplacementCurrent eCurrent hCurrent TotalCurrent
    Charge OuterVoltage InnerVoltage QuasiFermiPotential DisplacementCurrent
    eCurrent hCurrent TotalCurrent Charge OuterVoltage
    InnerVoltage QuasiFermiPotential DisplacementCurrent eCurrent hCurrent
    TotalCurrent Charge ]
}

Data {
      1.50000000000000E-02
      0.00000000000000E+00   0.00000000000000E+00   0.00000000000000E+00   0.00000000000000E+00  -6.40141748650906E-14
     -9.22122875581541E-10  -9.22186889756406E-10  -6.34013792876270E-18   6.00000000000000E-03   6.00000000000000E-03
      0.00000000000000E+00   0.00000000000000E+00   0.00000000000000E+00   0.00000000000000E+00   0.00000000000000E+00
      3.53416771488372E-17   2.90000000000000E-01   2.90000000000000E-01   0.00000000000000E+00   0.00000000000000E+00
      9.22262714973241E-10  -7.58252168349052E-14   9.22186889756406E-10   2.09039996038950E-17   1.30000000000000E-01
      1.30000000000000E-01   0.00000000000000E+00   0.00000000000000E+00   0.00000000000000E+00   0.00000000000000E+00
      0.00000000000000E+00  -4.99055388239695E-17
      3.00000000000000E-02
      0.00000000000000E+00   0.00000000000000E+00   0.00000000000000E+00   0.00000000000000E+00  -6.51760546392492E-14
     -9.06646573900576E-10  -9.06711749955216E-10  -6.42249311454586E-18   1.20000000000000E-02   1.20000000000000E-02
      0.00000000000000E+00   0.00000000000000E+00   0.00000000000000E+00   0.00000000000000E+00   0.00000000000000E+00
      3.70555807986848E-17   2.90000000000000E-01   2.90000000000000E-01   0.00000000000000E+00   0.00000000000000E+00
      9.06780203135445E-10  -6.84531802292348E-14   9.06711749955216E-10   2.08371322850845E-17   1.30000000000000E-01
      1.30000000000000E-01   0.00000000000000E+00   0.00000000000000E+00   0.00000000000000E+00   0.00000000000000E+00
      0.00000000000000E+00  -5.14702199692235E-17
      4.50000000000000E-02
      0.00000000000000E+00   0.00000000000000E+00   0.00000000000000E+00   0.00000000000000E+00  -6.63478263387684E-14
     -8.92512322706487E-10  -8.92578670532826E-10  -6.50425754651645E-18   1.80000000000000E-02   1.80000000000000E-02
      0.00000000000000E+00   0.00000000000000E+00   0.00000000000000E+00   0.00000000000000E+00   0.00000000000000E+00
      3.87690442464712E-17   2.90000000000000E-01   2.90000000000000E-01   0.00000000000000E+00   0.00000000000000E+00
      8.92640342067697E-10  -6.16715348709620E-14   8.92578670532827E-10   2.07705594624895E-17   1.30000000000000E-01
      1.30000000000000E-01   0.00000000000000E+00   0.00000000000000E+00   0.00000000000000E+00   0.00000000000000E+00
      0.00000000000000E+00  -5.30353461624443E-17
      6.00000000000000E-02
      0.00000000000000E+00   0.00000000000000E+00   0.00000000000000E+00   0.00000000000000E+00  -6.75297233410993E-14
     -8.79666431035303E-10  -8.79733960758644E-10  -6.58544958138378E-18   2.40000000000000E-02   2.40000000000000E-02
      0.00000000000000E+00   0.00000000000000E+00   0.00000000000000E+00   0.00000000000000E+00   0.00000000000000E+00
      4.04820917980751E-17   2.90000000000000E-01   2.90000000000000E-01   0.00000000000000E+00   0.00000000000000E+00
      8.79789398384284E-10  -5.54376256382434E-14   8.79733960758646E-10   2.07042508943875E-17   1.30000000000000E-01
      1.30000000000000E-01   0.00000000000000E+00   0.00000000000000E+00   0.00000000000000E+00   0.00000000000000E+00
      0.00000000000000E+00  -5.46008931110788E-17
      7.50000000000000E-02
      0.00000000000000E+00   0.00000000000000E+00   0.00000000000000E+00   0.00000000000000E+00  -6.87219550374843E-14
     -8.68058362664228E-10  -8.68127084619266E-10  -6.66608713652067E-18   3.00000000000000E-02   3.00000000000000E-02
      0.00000000000000E+00   0.00000000000000E+00   0.00000000000000E+00   0.00000000000000E+00   0.00000000000000E+00
      4.21947459550871E-17   2.90000000000000E-01   2.90000000000000E-01   0.00000000000000E+00   0.00000000000000E+00
      8.68176796294663E-10  -4.97116753968529E-14   8.68127084619266E-10   2.06381794548105E-17   1.30000000000000E-01
      1.30000000000000E-01   0.00000000000000E+00   0.00000000000000E+00   0.00000000000000E+00   0.00000000000000E+00
      0.00000000000000E+00  -5.61668382733769E-17
      9.00000000000000E-02
      0.00000000000000E+00   0.00000000000000E+00   0.00000000000000E+00   0.00000000000000E+00  -6.99247075264370E-14
     -8.57640592600348E-10  -8.57710517307874E-10  -6.74618768587867E-18   3.60000000000000E-02   3.60000000000000E-02
      0.00000000000000E+00   0.00000000000000E+00   0.00000000000000E+00   0.00000000000000E+00   0.00000000000000E+00
      4.39070275805604E-17   2.90000000000000E-01   2.90000000000000E-01   0.00000000000000E+00   0.00000000000000E+00
      8.57754973692130E-10  -4.44563842551983E-14   8.57710517307874E-10   2.05723208089280E-17   1.30000000000000E-01
      1.30000000000000E-01   0.00000000000000E+00   0.00000000000000E+00   0.00000000000000E+00   0.00000000000000E+00
      0.00000000000000E+00  -5.77331607036098E-17
      1.05000000000000E-01
      0.00000000000000E+00   0.00000000000000E+00   0.00000000000000E+00   0.00000000000000E+00  -7.11381441991658E-14
     -8.48368469448508E-10  -8.48439607592707E-10  -6.82576825788660E-18   4.20000000000000E-02   4.20000000000000E-02
      0.00000000000000E+00   0.00000000000000E+00   0.00000000000000E+00   0.00000000000000E+00   0.00000000000000E+00
      4.56189560479053E-17   2.90000000000000E-01   2.90000000000000E-01   0.00000000000000E+00   0.00000000000000E+00
      8.48479244522501E-10  -3.96369297927096E-14   8.48439607592708E-10   2.05066531224094E-17   1.30000000000000E-01
      1.30000000000000E-01   0.00000000000000E+00   0.00000000000000E+00   0.00000000000000E+00   0.00000000000000E+00
      0.00000000000000E+00  -5.92998409124281E-17
      1.20000000000000E-01
      0.00000000000000E+00   0.00000000000000E+00   0.00000000000000E+00   0.00000000000000E+00  -7.23624062323838E-14
     -8.40200084284249E-10  -8.40272446690482E-10  -6.90484543508847E-18   4.80000000000000E-02   4.80000000000000E-02
      0.00000000000000E+00   0.00000000000000E+00   0.00000000000000E+00   0.00000000000000E+00   0.00000000000000E+00
      4.73305493746991E-17   2.90000000000000E-01   2.90000000000000E-01   0.00000000000000E+00   0.00000000000000E+00
      8.40307667422926E-10  -3.52207324438922E-14   8.40272446690482E-10   2.04411568012205E-17   1.30000000000000E-01
      1.30000000000000E-01   0.00000000000000E+00   0.00000000000000E+00   0.00000000000000E+00   0.00000000000000E+00
      0.00000000000000E+00  -6.08668607408312E-17
      1.35000000000000E-01
      0.00000000000000E+00   0.00000000000000E+00   0.00000000000000E+00   0.00000000000000E+00  -7.35976130085245E-14
     -8.33096145621752E-10  -8.33169743234761E-10  -6.98343535530034E-18   5.40000000000000E-02   5.40000000000000E-02
      0.00000000000000E+00   0.00000000000000E+00   0.00000000000000E+00   0.00000000000000E+00   0.00000000000000E+00
      4.90418243429983E-17   2.90000000000000E-01   2.90000000000000E-01   0.00000000000000E+00   0.00000000000000E+00
      8.33200920614043E-10  -3.11773792821470E-14   8.33169743234761E-10   2.03758142586693E-17   1.30000000000000E-01
      1.30000000000000E-01   0.00000000000000E+00   0.00000000000000E+00   0.00000000000000E+00   0.00000000000000E+00
      0.00000000000000E+00  -6.24342032463672E-17
      1.50000000000000E-01
      0.00000000000000E+00   0.00000000000000E+00   0.00000000000000E+00   0.00000000000000E+00  -7.48438624876709E-14
     -8.27019860651391E-10  -8.27094704513879E-10  -7.06155371408964E-18   6.00000000000000E-02   6.00000000000000E-02
      0.00000000000000E+00   0.00000000000000E+00   0.00000000000000E+00   0.00000000000000E+00   0.00000000000000E+00
      5.07527966075707E-17   2.90000000000000E-01   2.90000000000000E-01   0.00000000000000E+00   0.00000000000000E+00
      8.27122183024711E-10  -2.74785108309564E-14   8.27094704513880E-10   2.03106097068471E-17   1.30000000000000E-01
      1.30000000000000E-01   0.00000000000000E+00   0.00000000000000E+00   0.00000000000000E+00   0.00000000000000E+00
      0.00000000000000E+00  -6.40018526003281E-17
      1.65000000000000E-01
      0.00000000000000E+00   0.00000000000000E+00   0.00000000000000E+00   0.00000000000000E+00  -7.61012315590802E-14
     -8.21936822727716E-10  -8.22012923959275E-10  -7.13921576840032E-18   6.60000000000000E-02   6.60000000000000E-02
      0.00000000000000E+00   0.00000000000000E+00   0.00000000000000E+00   0.00000000000000E+00   0.00000000000000E+00
      5.24634807933194E-17   2.90000000000000E-01   2.90000000000000E-01   0.00000000000000E+00   0.00000000000000E+00
      8.22037021627212E-10  -2.40976679334346E-14   8.22012923959279E-10   2.02455289699051E-17   1.30000000000000E-01
      1.30000000000000E-01   0.00000000000000E+00   0.00000000000000E+00   0.00000000000000E+00   0.00000000000000E+00
      0.00000000000000E+00  -6.55697939948242E-17
      1.80000000000000E-01
      0.00000000000000E+00   0.00000000000000E+00   0.00000000000000E+00   0.00000000000000E+00  -7.73697764027159E-14
     -8.17814905038378E-10  -8.17892274814781E-10  -7.21643634116616E-18   7.20000000000000E-02   7.20000000000000E-02
      0.00000000000000E+00   0.00000000000000E+00   0.00000000000000E+00   0.00000000000000E+00   0.00000000000000E+00
      5.41738905830325E-17   2.90000000000000E-01   2.90000000000000E-01   0.00000000000000E+00   0.00000000000000E+00
      8.17913284962247E-10  -2.10101474649270E-14   8.17892274814783E-10   2.01805593168739E-17   1.30000000000000E-01
      1.30000000000000E-01   0.00000000000000E+00   0.00000000000000E+00   0.00000000000000E+00   0.00000000000000E+00
      0.00000000000000E+00  -6.71380135587402E-17
      1.95000000000000E-01
      0.00000000000000E+00   0.00000000000000E+00   0.00000000000000E+00   0.00000000000000E+00  -7.86495328924730E-14
     -8.14624160235770E-10  -8.14702809768662E-10  -7.29322982677152E-18   7.80000000000000E-02   7.80000000000000E-02
      0.00000000000000E+00   0.00000000000000E+00   0.00000000000000E+00   0.00000000000000E+00   0.00000000000000E+00
      5.58840387964747E-17   2.90000000000000E-01   2.90000000000000E-01   0.00000000000000E+00   0.00000000000000E+00
      8.14721002837114E-10  -1.81930684507443E-14   8.14702809768663E-10   2.01156893119703E-17   1.30000000000000E-01
      1.30000000000000E-01   0.00000000000000E+00   0.00000000000000E+00   0.00000000000000E+00   0.00000000000000E+00
      0.00000000000000E+00  -6.87064982816735E-17
      2.10000000000000E-01
      0.00000000000000E+00   0.00000000000000E+00   0.00000000000000E+00   0.00000000000000E+00  -7.99405170725887E-14
     -8.12336726590222E-10  -8.12416667107294E-10  -7.36961019723408E-18   8.40000000000000E-02   8.40000000000000E-02
      0.00000000000000E+00   0.00000000000000E+00   0.00000000000000E+00   0.00000000000000E+00   0.00000000000000E+00
      5.75939374617290E-17   2.90000000000000E-01   2.90000000000000E-01   0.00000000000000E+00   0.00000000000000E+00
      8.12432292186986E-10  -1.56250796901535E-14   8.12416667107296E-10   2.00509086805548E-17   1.30000000000000E-01
      1.30000000000000E-01   0.00000000000000E+00   0.00000000000000E+00   0.00000000000000E+00   0.00000000000000E+00
      0.00000000000000E+00  -7.02752359450496E-17
      2.25000000000000E-01
      0.00000000000000E+00   0.00000000000000E+00   0.00000000000000E+00   0.00000000000000E+00  -8.12427257369330E-14
     -8.10926740057867E-10  -8.11007982783604E-10  -7.44559100899775E-18   9.00000000000000E-02   9.00000000000000E-02
      0.00000000000000E+00   0.00000000000000E+00   0.00000000000000E+00   0.00000000000000E+00   0.00000000000000E+00
      5.93035978795969E-17   2.90000000000000E-01   2.90000000000000E-01   0.00000000000000E+00   0.00000000000000E+00
      8.11021269098276E-10  -1.32863146714713E-14   8.11007982783605E-10   1.99862081890916E-17   1.30000000000000E-01
      1.30000000000000E-01   0.00000000000000E+00   0.00000000000000E+00   0.00000000000000E+00   0.00000000000000E+00
      0.00000000000000E+00  -7.18442150596908E-17
      2.40000000000000E-01
      0.00000000000000E+00   0.00000000000000E+00   0.00000000000000E+00   0.00000000000000E+00  -8.25561371376063E-14
     -8.10370252502410E-10  -8.10452808639548E-10  -7.52118541023620E-18   9.60000000000000E-02   9.60000000000000E-02
      0.00000000000000E+00   0.00000000000000E+00   0.00000000000000E+00   0.00000000000000E+00   0.00000000000000E+00
      6.10130306817851E-17   2.90000000000000E-01   2.90000000000000E-01   0.00000000000000E+00   0.00000000000000E+00
      8.10463967004332E-10  -1.11583647835818E-14   8.10452808639549E-10   1.99215795376394E-17   1.30000000000000E-01
      1.30000000000000E-01   0.00000000000000E+00   0.00000000000000E+00   0.00000000000000E+00   0.00000000000000E+00
      0.00000000000000E+00  -7.34134248091884E-17
      2.55000000000000E-01
      0.00000000000000E+00   0.00000000000000E+00   0.00000000000000E+00   0.00000000000000E+00  -8.38807118445258E-14
     -8.10645156240967E-10  -8.10729036952812E-10  -7.59640614857905E-18   1.02000000000000E-01   1.02000000000000E-01
      0.00000000000000E+00   0.00000000000000E+00   0.00000000000000E+00   0.00000000000000E+00   0.00000000000000E+00
      6.27222458835232E-17   2.90000000000000E-01   2.90000000000000E-01   0.00000000000000E+00   0.00000000000000E+00
      8.10738261077376E-10  -9.22412456559383E-15   8.10729036952811E-10   1.98570152635532E-17   1.30000000000000E-01
      1.30000000000000E-01   0.00000000000000E+00   0.00000000000000E+00   0.00000000000000E+00   0.00000000000000E+00
      0.00000000000000E+00  -7.49828549984973E-17
      2.70000000000000E-01
      0.00000000000000E+00   0.00000000000000E+00   0.00000000000000E+00   0.00000000000000E+00  -8.52163937717481E-14
     -8.11731114713167E-10  -8.11816331106939E-10  -7.67126557918219E-18   1.08000000000000E-01   1.08000000000000E-01
      0.00000000000000E+00   0.00000000000000E+00   0.00000000000000E+00   0.00000000000000E+00   0.00000000000000E+00
      6.44312529311915E-17   2.90000000000000E-01   2.90000000000000E-01   0.00000000000000E+00   0.00000000000000E+00
      8.11823798856139E-10  -7.46774920018770E-15   8.11816331106939E-10   1.97925086552195E-17   1.30000000000000E-01
      1.30000000000000E-01   0.00000000000000E+00   0.00000000000000E+00   0.00000000000000E+00   0.00000000000000E+00
      0.00000000000000E+00  -7.65524960072288E-17
      2.85000000000000E-01
      0.00000000000000E+00   0.00000000000000E+00   0.00000000000000E+00   0.00000000000000E+00  -8.65631113793857E-14
     -8.13609499515286E-10  -8.13696062626666E-10  -7.74577567307310E-18   1.14000000000000E-01   1.14000000000000E-01
      0.00000000000000E+00   0.00000000000000E+00   0.00000000000000E+00   0.00000000000000E+00   0.00000000000000E+00
      6.61400607454773E-17   2.90000000000000E-01   2.90000000000000E-01   0.00000000000000E+00   0.00000000000000E+00
      8.13701937166585E-10  -5.87453991947272E-15   8.13696062626665E-10   1.97280536747695E-17   1.30000000000000E-01
      1.30000000000000E-01   0.00000000000000E+00   0.00000000000000E+00   0.00000000000000E+00   0.00000000000000E+00
      0.00000000000000E+00  -7.81223387471736E-17
      3.00000000000000E-01
      0.00000000000000E+00   0.00000000000000E+00   0.00000000000000E+00   0.00000000000000E+00  -8.79207790524767E-14
     -8.16263333721694E-10  -8.16351254500746E-10  -7.81994802570952E-18   1.20000000000000E-01   1.20000000000000E-01
      0.00000000000000E+00   0.00000000000000E+00   0.00000000000000E+00   0.00000000000000E+00   0.00000000000000E+00
      6.78486777605176E-17   2.90000000000000E-01   2.90000000000000E-01   0.00000000000000E+00   0.00000000000000E+00
      8.16355685412711E-10  -4.43091196433120E-15   8.16351254500746E-10   1.96636448888260E-17   1.30000000000000E-01
      1.30000000000000E-01   0.00000000000000E+00   0.00000000000000E+00   0.00000000000000E+00   0.00000000000000E+00
      0.00000000000000E+00  -7.96923746236341E-17
      3.15000000000000E-01
      0.00000000000000E+00   0.00000000000000E+00   0.00000000000000E+00   0.00000000000000E+00  -8.92892986504391E-14
     -8.19677241761439E-10  -8.19766531060089E-10  -7.89379386569777E-18   1.26000000000000E-01   1.26000000000000E-01
      0.00000000000000E+00   0.00000000000000E+00   0.00000000000000E+00   0.00000000000000E+00   0.00000000000000E+00
      6.95571119594446E-17   2.90000000000000E-01   2.90000000000000E-01   0.00000000000000E+00   0.00000000000000E+00
      8.19769655336429E-10  -3.12427633905391E-15   8.19766531060090E-10   1.95992774064419E-17   1.30000000000000E-01
      1.30000000000000E-01   0.00000000000000E+00   0.00000000000000E+00   0.00000000000000E+00   0.00000000000000E+00
      0.00000000000000E+00  -8.12625955001887E-17
      3.30000000000000E-01
      0.00000000000000E+00   0.00000000000000E+00   0.00000000000000E+00   0.00000000000000E+00  -9.06685612130793E-14
     -8.23837405804985E-10  -8.23928074366198E-10  -7.96732406362262E-18   1.32000000000000E-01   1.32000000000000E-01
      0.00000000000000E+00   0.00000000000000E+00   0.00000000000000E+00   0.00000000000000E+00   0.00000000000000E+00
      7.12653709066995E-17   2.90000000000000E-01   2.90000000000000E-01   0.00000000000000E+00   0.00000000000000E+00
      8.23930017369449E-10  -1.94300324997165E-15   8.23928074366199E-10   1.95349468234731E-17   1.30000000000000E-01
      1.30000000000000E-01   0.00000000000000E+00   0.00000000000000E+00   0.00000000000000E+00   0.00000000000000E+00
      0.00000000000000E+00  -8.28329936665500E-17
      3.45000000000000E-01
      0.00000000000000E+00   0.00000000000000E+00   0.00000000000000E+00   0.00000000000000E+00  -9.20584488019854E-14
     -8.28731528907770E-10  -8.28823587356571E-10  -8.04054914094682E-18   1.38000000000000E-01   1.38000000000000E-01
      0.00000000000000E+00   0.00000000000000E+00   0.00000000000000E+00   0.00000000000000E+00   0.00000000000000E+00
      7.29734617774447E-17   2.90000000000000E-01   2.90000000000000E-01   0.00000000000000E+00   0.00000000000000E+00
      8.28824463726536E-10  -8.76369962766401E-16   8.28823587356573E-10   1.94706491727133E-17   1.30000000000000E-01
      1.30000000000000E-01   0.00000000000000E+00   0.00000000000000E+00   0.00000000000000E+00   0.00000000000000E+00
      0.00000000000000E+00  -8.44035618092112E-17
      3.60000000000000E-01
      0.00000000000000E+00   0.00000000000000E+00   0.00000000000000E+00   0.00000000000000E+00  -9.34588364497554E-14
     -8.34348805113086E-10  -8.34442263949536E-10  -8.11347927894362E-18   1.44000000000000E-01   1.44000000000000E-01
      0.00000000000000E+00   0.00000000000000E+00   0.00000000000000E+00   0.00000000000000E+00   0.00000000000000E+00
      7.46813913843686E-17   2.90000000000000E-01   2.90000000000000E-01   0.00000000000000E+00   0.00000000000000E+00
      8.34442178418653E-10   8.55308833226199E-17   8.34442263949536E-10   1.94063808791857E-17   1.30000000000000E-01
      1.30000000000000E-01   0.00000000000000E+00   0.00000000000000E+00   0.00000000000000E+00   0.00000000000000E+00
      0.00000000000000E+00  -8.59742929846107E-17
      3.75000000000000E-01
      0.00000000000000E+00   0.00000000000000E+00   0.00000000000000E+00   0.00000000000000E+00  -9.48695941841572E-14
     -8.40679896630996E-10  -8.40774766225180E-10  -8.18612432762967E-18   1.50000000000000E-01   1.50000000000000E-01
      0.00000000000000E+00   0.00000000000000E+00   0.00000000000000E+00   0.00000000000000E+00   0.00000000000000E+00
      7.63891662021465E-17   2.90000000000000E-01   2.90000000000000E-01   0.00000000000000E+00   0.00000000000000E+00
      8.40773814396671E-10   9.51828508302823E-16   8.40774766225180E-10   1.93421387200515E-17   1.30000000000000E-01
      1.30000000000000E-01   0.00000000000000E+00   0.00000000000000E+00   0.00000000000000E+00   0.00000000000000E+00
      0.00000000000000E+00  -8.75451805945684E-17
      3.90000000000000E-01
      0.00000000000000E+00   0.00000000000000E+00   0.00000000000000E+00   0.00000000000000E+00  -9.62905890902881E-14
     -8.47716918412113E-10  -8.47813209001203E-10  -8.25849381467018E-18   1.56000000000000E-01   1.56000000000000E-01
      0.00000000000000E+00   0.00000000000000E+00   0.00000000000000E+00   0.00000000000000E+00   0.00000000000000E+00
      7.80967923897913E-17   2.90000000000000E-01   2.90000000000000E-01   0.00000000000000E+00   0.00000000000000E+00
      8.47811478072567E-10   1.73092863748637E-15   8.47813209001205E-10   1.92779197886529E-17   1.30000000000000E-01
      1.30000000000000E-01   0.00000000000000E+00   0.00000000000000E+00   0.00000000000000E+00   0.00000000000000E+00
      0.00000000000000E+00  -8.91162183637740E-17
      4.05000000000000E-01
      0.00000000000000E+00   0.00000000000000E+00   0.00000000000000E+00   0.00000000000000E+00  -9.77216873711170E-14
     -8.55453430385516E-10  -8.55551152072887E-10  -8.33059695423190E-18   1.62000000000000E-01   1.62000000000000E-01
      0.00000000000000E+00   0.00000000000000E+00   0.00000000000000E+00   0.00000000000000E+00   0.00000000000000E+00
      7.98042758111053E-17   2.90000000000000E-01   2.90000000000000E-01   0.00000000000000E+00   0.00000000000000E+00
      8.55548721505548E-10   2.43056733922294E-15   8.55551152072887E-10   1.92137214622586E-17   1.30000000000000E-01
      1.30000000000000E-01   0.00000000000000E+00   0.00000000000000E+00   0.00000000000000E+00   0.00000000000000E+00
      0.00000000000000E+00  -9.06874003191319E-17
      4.20000000000000E-01
      0.00000000000000E+00   0.00000000000000E+00   0.00000000000000E+00   0.00000000000000E+00  -9.91627563656259E-14
     -8.63884437696750E-10  -8.63983600453116E-10  -8.40244265576232E-18   1.68000000000000E-01   1.68000000000000E-01
      0.00000000000000E+00   0.00000000000000E+00   0.00000000000000E+00   0.00000000000000E+00   0.00000000000000E+00
      8.15116220534207E-17   2.90000000000000E-01   2.90000000000000E-01   0.00000000000000E+00   0.00000000000000E+00
      8.63980542587013E-10   3.05786610412221E-15   8.63983600453117E-10   1.91495413731247E-17   1.30000000000000E-01
      1.30000000000000E-01   0.00000000000000E+00   0.00000000000000E+00   0.00000000000000E+00   0.00000000000000E+00
      0.00000000000000E+00  -9.22587207707831E-17
      4.35000000000000E-01
      0.00000000000000E+00   0.00000000000000E+00   0.00000000000000E+00   0.00000000000000E+00  -1.00613666484038E-13
     -8.73006399296338E-10  -8.73107012962822E-10  -8.47403953267671E-18   1.74000000000000E-01   1.74000000000000E-01
      0.00000000000000E+00   0.00000000000000E+00   0.00000000000000E+00   0.00000000000000E+00   0.00000000000000E+00
      8.32188364447968E-17   2.90000000000000E-01   2.90000000000000E-01   0.00000000000000E+00   0.00000000000000E+00
      8.73103393611282E-10   3.61935154049537E-15   8.73107012962823E-10   1.90853773825260E-17   1.30000000000000E-01
      1.30000000000000E-01   0.00000000000000E+00   0.00000000000000E+00   0.00000000000000E+00   0.00000000000000E+00
      0.00000000000000E+00  -9.38301742946462E-17
      4.50000000000000E-01
      0.00000000000000E+00   0.00000000000000E+00   0.00000000000000E+00   0.00000000000000E+00  -1.02074293021404E-13
     -8.82817245404494E-10  -8.82919319697515E-10  -8.54539591093718E-18   1.80000000000000E-01   1.80000000000000E-01
      0.00000000000000E+00   0.00000000000000E+00   0.00000000000000E+00   0.00000000000000E+00   0.00000000000000E+00
      8.49259240698245E-17   2.90000000000000E-01   2.90000000000000E-01   0.00000000000000E+00   0.00000000000000E+00
      8.82915198680471E-10   4.12101704523486E-15   8.82919319697516E-10   1.90212275574485E-17   1.30000000000000E-01
      1.30000000000000E-01   0.00000000000000E+00   0.00000000000000E+00   0.00000000000000E+00   0.00000000000000E+00
      0.00000000000000E+00  -9.54017557163359E-17
      4.65000000000000E-01
      0.00000000000000E+00   0.00000000000000E+00   0.00000000000000E+00   0.00000000000000E+00  -1.03544517813770E-13
     -8.93316404310302E-10  -8.93419948828116E-10  -8.61651983751008E-18   1.86000000000000E-01   1.86000000000000E-01
      0.00000000000000E+00   0.00000000000000E+00   0.00000000000000E+00   0.00000000000000E+00   0.00000000000000E+00
      8.66328897841724E-17   2.90000000000000E-01   2.90000000000000E-01   0.00000000000000E+00   0.00000000000000E+00
      8.93415380463003E-10   4.56836511396352E-15   8.93419948828117E-10   1.89570901496653E-17   1.30000000000000E-01
      1.30000000000000E-01   0.00000000000000E+00   0.00000000000000E+00   0.00000000000000E+00   0.00000000000000E+00
      0.00000000000000E+00  -9.69734600963277E-17
      4.80000000000000E-01
      0.00000000000000E+00   0.00000000000000E+00   0.00000000000000E+00   0.00000000000000E+00  -1.05024230705387E-13
     -9.04504839107648E-10  -9.04609863338353E-10  -8.68741908869005E-18   1.92000000000000E-01   1.92000000000000E-01
      0.00000000000000E+00   0.00000000000000E+00   0.00000000000000E+00   0.00000000000000E+00   0.00000000000000E+00
      8.83397382279959E-17   2.90000000000000E-01   2.90000000000000E-01   0.00000000000000E+00   0.00000000000000E+00
      9.04604896907995E-10   4.96643035926757E-15   9.04609863338354E-10   1.88929635769497E-17   1.30000000000000E-01
      1.30000000000000E-01   0.00000000000000E+00   0.00000000000000E+00   0.00000000000000E+00   0.00000000000000E+00
      0.00000000000000E+00  -9.85452827162556E-17
      4.95000000000000E-01
      0.00000000000000E+00   0.00000000000000E+00   0.00000000000000E+00   0.00000000000000E+00  -1.06513330800482E-13
     -9.16385095104310E-10  -9.16491608435110E-10  -8.75810117828107E-18   1.98000000000000E-01   1.98000000000000E-01
      0.00000000000000E+00   0.00000000000000E+00   0.00000000000000E+00   0.00000000000000E+00   0.00000000000000E+00
      9.00464738383168E-17   2.90000000000000E-01   2.90000000000000E-01   0.00000000000000E+00   0.00000000000000E+00
      9.16486288613959E-10   5.31982115079746E-15   9.16491608435110E-10   1.88288464062023E-17   1.30000000000000E-01
      1.30000000000000E-01   0.00000000000000E+00   0.00000000000000E+00   0.00000000000000E+00   0.00000000000000E+00
      0.00000000000000E+00  -1.00117219066238E-16
      5.10000000000000E-01
      0.00000000000000E+00   0.00000000000000E+00   0.00000000000000E+00   0.00000000000000E+00  -1.08011727479023E-13
     -9.28961358684126E-10  -9.29069370411605E-10  -8.82857336562642E-18   2.04000000000000E-01   2.04000000000000E-01
      0.00000000000000E+00   0.00000000000000E+00   0.00000000000000E+00   0.00000000000000E+00   0.00000000000000E+00
      9.17531008604696E-17   2.90000000000000E-01   2.90000000000000E-01   0.00000000000000E+00   0.00000000000000E+00
      9.29063737661646E-10   5.63274995886355E-15   9.29069370411605E-10   1.87647373382958E-17   1.30000000000000E-01
      1.30000000000000E-01   0.00000000000000E+00   0.00000000000000E+00   0.00000000000000E+00   0.00000000000000E+00
      0.00000000000000E+00  -1.01689264833139E-16
      5.25000000000000E-01
      0.00000000000000E+00   0.00000000000000E+00   0.00000000000000E+00   0.00000000000000E+00  -1.09519341162079E-13
     -9.42239528576814E-10  -9.42349047917976E-10  -8.89884266348063E-18   2.10000000000000E-01   2.10000000000000E-01
      0.00000000000000E+00   0.00000000000000E+00   0.00000000000000E+00   0.00000000000000E+00   0.00000000000000E+00
      9.34596233587022E-17   2.90000000000000E-01   2.90000000000000E-01   0.00000000000000E+00   0.00000000000000E+00
      9.42343138849915E-10   5.90906806219497E-15   9.42349047917978E-10   1.87006351944569E-17   1.30000000000000E-01
      1.30000000000000E-01   0.00000000000000E+00   0.00000000000000E+00   0.00000000000000E+00   0.00000000000000E+00
      0.00000000000000E+00  -1.03261415889679E-16
      5.40000000000000E-01
      0.00000000000000E+00   0.00000000000000E+00   0.00000000000000E+00   0.00000000000000E+00  -1.11036103819034E-13
     -9.56227300604763E-10  -9.56338336708582E-10  -8.96891584571804E-18   2.16000000000000E-01   2.16000000000000E-01
      0.00000000000000E+00   0.00000000000000E+00   0.00000000000000E+00   0.00000000000000E+00   0.00000000000000E+00
      9.51660452260092E-17   2.90000000000000E-01   2.90000000000000E-01   0.00000000000000E+00   0.00000000000000E+00
      9.56332184421458E-10   6.15228712484102E-15   9.56338336708583E-10   1.86365389040295E-17   1.30000000000000E-01
      1.30000000000000E-01   0.00000000000000E+00   0.00000000000000E+00   0.00000000000000E+00   0.00000000000000E+00
      0.00000000000000E+00  -1.04833668284321E-16
      5.55000000000000E-01
      0.00000000000000E+00   0.00000000000000E+00   0.00000000000000E+00   0.00000000000000E+00  -1.12561959215336E-13