DF-ISE text

Info {
  version   = 1.0
  type      = xyplot
  datasets  = [
    "time"
    "source OuterVoltage" "source InnerVoltage" "source QuasiFermiPotential" "source DisplacementCurrent" "source eCurrent"
    "source hCurrent" "source TotalCurrent" "source Charge" "topGate OuterVoltage" "topGate InnerVoltage"
    "topGate QuasiFermiPotential" "topGate DisplacementCurrent" "topGate eCurrent" "topGate hCurrent" "topGate TotalCurrent"
    "topGate Charge" "drain OuterVoltage" "drain InnerVoltage" "drain QuasiFermiPotential" "drain DisplacementCurrent"
    "drain eCurrent" "drain hCurrent" "drain TotalCurrent" "drain Charge" "bottomGate OuterVoltage"
    "bottomGate InnerVoltage" "bottomGate QuasiFermiPotential" "bottomGate DisplacementCurrent" "bottomGate eCurrent" "bottomGate hCurrent"
    "bottomGate TotalCurrent" "bottomGate Charge" ]
  functions = [
    Time
    OuterVoltage InnerVoltage QuasiFermiPotential DisplacementCurrent eCurrent
    hCurrent TotalCurrent Charge OuterVoltage InnerVoltage
    QuasiFermiPotential DisplacementCurrent eCurrent hCurrent TotalCurrent
    Charge OuterVoltage InnerVoltage QuasiFermiPotential DisplacementCurrent
    eCurrent hCurrent TotalCurrent Charge OuterVoltage
    InnerVoltage QuasiFermiPotential DisplacementCurrent eCurrent hCurrent
    TotalCurrent Charge ]
}

Data {
      1.50000000000000E-02
      0.00000000000000E+00   0.00000000000000E+00   0.00000000000000E+00   0.00000000000000E+00  -2.52063792621192E-13
     -4.84670883212457E-11  -4.87191521138669E-11  -1.40534226737564E-17   6.00000000000000E-03   6.00000000000000E-03
      0.00000000000000E+00   0.00000000000000E+00   0.00000000000000E+00   0.00000000000000E+00   0.00000000000000E+00
     -7.97226714546127E-17   2.50000000000000E-01   2.50000000000000E-01   0.00000000000000E+00   0.00000000000000E+00
      4.87146127943931E-11   4.53931947383562E-15   4.87191521138670E-11   1.28433337102162E-17   3.00000000000000E-01
      3.00000000000000E-01   0.00000000000000E+00   0.00000000000000E+00   0.00000000000000E+00   0.00000000000000E+00
      0.00000000000000E+00   8.09327604181530E-17
      3.00000000000000E-02
      0.00000000000000E+00   0.00000000000000E+00   0.00000000000000E+00   0.00000000000000E+00  -2.54100788442985E-13
     -4.50841723936075E-11  -4.53382731820505E-11  -1.41180384394973E-17   1.20000000000000E-02   1.20000000000000E-02
      0.00000000000000E+00   0.00000000000000E+00   0.00000000000000E+00   0.00000000000000E+00   0.00000000000000E+00
     -7.80184821406513E-17   2.50000000000000E-01   2.50000000000000E-01   0.00000000000000E+00   0.00000000000000E+00
      4.53337747374153E-11   4.49844463513614E-15   4.53382731820504E-11   1.27782531247472E-17   3.00000000000000E-01
      3.00000000000000E-01   0.00000000000000E+00   0.00000000000000E+00   0.00000000000000E+00   0.00000000000000E+00
      0.00000000000000E+00   7.93582674554014E-17
      4.50000000000000E-02
      0.00000000000000E+00   0.00000000000000E+00   0.00000000000000E+00   0.00000000000000E+00  -2.56140905291671E-13
     -4.20248627388115E-11  -4.22810036441032E-11  -1.41826365577364E-17   1.80000000000000E-02   1.80000000000000E-02
      0.00000000000000E+00   0.00000000000000E+00   0.00000000000000E+00   0.00000000000000E+00   0.00000000000000E+00
     -7.63142860807453E-17   2.50000000000000E-01   2.50000000000000E-01   0.00000000000000E+00   0.00000000000000E+00
      4.22765459709430E-11   4.45767316021902E-15   4.22810036441032E-11   1.27131413978461E-17   3.00000000000000E-01
      3.00000000000000E-01   0.00000000000000E+00   0.00000000000000E+00   0.00000000000000E+00   0.00000000000000E+00
      0.00000000000000E+00   7.77837812406356E-17
      6.00000000000000E-02
      0.00000000000000E+00   0.00000000000000E+00   0.00000000000000E+00   0.00000000000000E+00  -2.58184101640880E-13
     -3.92573171537827E-11  -3.95155012554236E-11  -1.42472174852581E-17   2.40000000000000E-02   2.40000000000000E-02
      0.00000000000000E+00   0.00000000000000E+00   0.00000000000000E+00   0.00000000000000E+00   0.00000000000000E+00
     -7.46100825911109E-17   2.50000000000000E-01   2.50000000000000E-01   0.00000000000000E+00   0.00000000000000E+00
      3.95110842522788E-11   4.41700314476957E-15   3.95155012554235E-11   1.26479976188151E-17   3.00000000000000E-01
      3.00000000000000E-01   0.00000000000000E+00   0.00000000000000E+00   0.00000000000000E+00   0.00000000000000E+00
      0.00000000000000E+00   7.62093024575539E-17
      7.50000000000000E-02
      0.00000000000000E+00   0.00000000000000E+00   0.00000000000000E+00   0.00000000000000E+00  -2.60230335469340E-13
     -3.67526067178773E-11  -3.70128370533466E-11  -1.43117816651224E-17   3.00000000000000E-02   3.00000000000000E-02
      0.00000000000000E+00   0.00000000000000E+00   0.00000000000000E+00   0.00000000000000E+00   0.00000000000000E+00
     -7.29058709796294E-17   2.50000000000000E-01   2.50000000000000E-01   0.00000000000000E+00   0.00000000000000E+00
      3.70084606206628E-11   4.37643268372294E-15   3.70128370533466E-11   1.25828208465425E-17   3.00000000000000E-01
      3.00000000000000E-01   0.00000000000000E+00   0.00000000000000E+00   0.00000000000000E+00   0.00000000000000E+00
      0.00000000000000E+00   7.46348317982092E-17
      9.00000000000000E-02
      0.00000000000000E+00   0.00000000000000E+00   0.00000000000000E+00   0.00000000000000E+00  -2.62279564387602E-13
     -3.44845061506994E-11  -3.47467857150870E-11  -1.43763295271237E-17   3.60000000000000E-02   3.60000000000000E-02
      0.00000000000000E+00   0.00000000000000E+00   0.00000000000000E+00   0.00000000000000E+00   0.00000000000000E+00
     -7.12016505450468E-17   2.50000000000000E-01   2.50000000000000E-01   0.00000000000000E+00   0.00000000000000E+00
      3.47424497551727E-11   4.33595991430743E-15   3.47467857150870E-11   1.25176101083627E-17   3.00000000000000E-01
      3.00000000000000E-01   0.00000000000000E+00   0.00000000000000E+00   0.00000000000000E+00   0.00000000000000E+00
      0.00000000000000E+00   7.30603699638078E-17
      1.05000000000000E-01
      0.00000000000000E+00   0.00000000000000E+00   0.00000000000000E+00   0.00000000000000E+00  -2.64331745742214E-13
     -3.24292945876401E-11  -3.26936263333823E-11  -1.44408614882337E-17   4.20000000000000E-02   4.20000000000000E-02
      0.00000000000000E+00   0.00000000000000E+00   0.00000000000000E+00   0.00000000000000E+00   0.00000000000000E+00
     -6.94974205761603E-17   2.50000000000000E-01   2.50000000000000E-01   0.00000000000000E+00   0.00000000000000E+00
      3.26893307503315E-11   4.29558305078803E-15   3.26936263333823E-11   1.24523643988724E-17   3.00000000000000E-01
      3.00000000000000E-01   0.00000000000000E+00   0.00000000000000E+00   0.00000000000000E+00   0.00000000000000E+00
      0.00000000000000E+00   7.14859176655216E-17
      1.20000000000000E-01
      0.00000000000000E+00   0.00000000000000E+00   0.00000000000000E+00   0.00000000000000E+00  -2.66386836701813E-13
     -3.05655666493852E-11  -3.08319534860870E-11  -1.45053779530281E-17   4.80000000000000E-02   4.80000000000000E-02
      0.00000000000000E+00   0.00000000000000E+00   0.00000000000000E+00   0.00000000000000E+00   0.00000000000000E+00
     -6.77931803509885E-17   2.50000000000000E-01   2.50000000000000E-01   0.00000000000000E+00   0.00000000000000E+00
      3.08276981856631E-11   4.25530042394919E-15   3.08319534860870E-11   1.23870826787007E-17   3.00000000000000E-01
      3.00000000000000E-01   0.00000000000000E+00   0.00000000000000E+00   0.00000000000000E+00   0.00000000000000E+00
      0.00000000000000E+00   6.99114756253159E-17
      1.35000000000000E-01
      0.00000000000000E+00   0.00000000000000E+00   0.00000000000000E+00   0.00000000000000E+00  -2.68444794328136E-13
     -2.88740536778673E-11  -2.91424984721954E-11  -1.45698793140975E-17   5.40000000000000E-02   5.40000000000000E-02
      0.00000000000000E+00   0.00000000000000E+00   0.00000000000000E+00   0.00000000000000E+00   0.00000000000000E+00
     -6.60889291359266E-17   2.50000000000000E-01   2.50000000000000E-01   0.00000000000000E+00   0.00000000000000E+00
      2.91382833616772E-11   4.21511051816516E-15   2.91424984721954E-11   1.23217638732306E-17   3.00000000000000E-01
      3.00000000000000E-01   0.00000000000000E+00   0.00000000000000E+00   0.00000000000000E+00   0.00000000000000E+00
      0.00000000000000E+00   6.83370445767935E-17
      1.50000000000000E-01
      0.00000000000000E+00   0.00000000000000E+00   0.00000000000000E+00   0.00000000000000E+00  -2.70505575629728E-13
     -2.73374550046009E-11  -2.76079605802306E-11  -1.46343659524442E-17   6.00000000000000E-02   6.00000000000000E-02
      0.00000000000000E+00   0.00000000000000E+00   0.00000000000000E+00   0.00000000000000E+00   0.00000000000000E+00
     -6.43846661848830E-17   2.50000000000000E-01   2.50000000000000E-01   0.00000000000000E+00   0.00000000000000E+00
      2.76037855682244E-11   4.17501200620977E-15   2.76079605802306E-11   1.22564068712709E-17   3.00000000000000E-01
      3.00000000000000E-01   0.00000000000000E+00   0.00000000000000E+00   0.00000000000000E+00   0.00000000000000E+00
      0.00000000000000E+00   6.67626252660562E-17
      1.65000000000000E-01
      0.00000000000000E+00   0.00000000000000E+00   0.00000000000000E+00   0.00000000000000E+00  -2.72569137604237E-13
     -2.59402791087311E-11  -2.62128482463353E-11  -1.46988382378642E-17   6.60000000000000E-02   6.60000000000000E-02
      0.00000000000000E+00   0.00000000000000E+00   0.00000000000000E+00   0.00000000000000E+00   0.00000000000000E+00
     -6.26803907383967E-17   2.50000000000000E-01   2.50000000000000E-01   0.00000000000000E+00   0.00000000000000E+00
      2.62087132425509E-11   4.13500378437052E-15   2.62128482463353E-11   1.21910105236749E-17   3.00000000000000E-01
      3.00000000000000E-01   0.00000000000000E+00   0.00000000000000E+00   0.00000000000000E+00   0.00000000000000E+00
      0.00000000000000E+00   6.51882184525860E-17
      1.80000000000000E-01
      0.00000000000000E+00   0.00000000000000E+00   0.00000000000000E+00   0.00000000000000E+00  -2.74635437265046E-13
     -2.46686945120448E-11  -2.49433299493098E-11  -1.47632965293164E-17   7.20000000000000E-02   7.20000000000000E-02
      0.00000000000000E+00   0.00000000000000E+00   0.00000000000000E+00   0.00000000000000E+00   0.00000000000000E+00
     -6.09761020227350E-17   2.50000000000000E-01   2.50000000000000E-01   0.00000000000000E+00   0.00000000000000E+00
      2.49392348643075E-11   4.09508500237198E-15   2.49433299493098E-11   1.21255736419050E-17   3.00000000000000E-01
      3.00000000000000E-01   0.00000000000000E+00   0.00000000000000E+00   0.00000000000000E+00   0.00000000000000E+00
      0.00000000000000E+00   6.36138249101465E-17
      1.95000000000000E-01
      0.00000000000000E+00   0.00000000000000E+00   0.00000000000000E+00   0.00000000000000E+00  -2.76704431656247E-13
     -2.35103902472367E-11  -2.37870946788929E-11  -1.48277411752772E-17   7.80000000000000E-02   7.80000000000000E-02
      0.00000000000000E+00   0.00000000000000E+00   0.00000000000000E+00   0.00000000000000E+00   0.00000000000000E+00
     -5.92717992489681E-17   2.50000000000000E-01   2.50000000000000E-01   0.00000000000000E+00   0.00000000000000E+00
      2.37830394238021E-11   4.05525509078670E-15   2.37870946788929E-11   1.20600949965391E-17   3.00000000000000E-01
      3.00000000000000E-01   0.00000000000000E+00   0.00000000000000E+00   0.00000000000000E+00   0.00000000000000E+00
      0.00000000000000E+00   6.20394454277061E-17
      2.10000000000000E-01
      0.00000000000000E+00   0.00000000000000E+00   0.00000000000000E+00   0.00000000000000E+00  -2.78776077856482E-13
     -2.24544457243212E-11  -2.27332218021777E-11  -1.48921725140836E-17   8.40000000000000E-02   8.40000000000000E-02
      0.00000000000000E+00   0.00000000000000E+00   0.00000000000000E+00   0.00000000000000E+00   0.00000000000000E+00
     -5.75674816120205E-17   2.50000000000000E-01   2.50000000000000E-01   0.00000000000000E+00   0.00000000000000E+00
      2.27292062883921E-11   4.01551378555549E-15   2.27332218021777E-11   1.19945733157184E-17   3.00000000000000E-01
      3.00000000000000E-01   0.00000000000000E+00   0.00000000000000E+00   0.00000000000000E+00   0.00000000000000E+00
      0.00000000000000E+00   6.04650808103856E-17
      2.25000000000000E-01
      0.00000000000000E+00   0.00000000000000E+00   0.00000000000000E+00   0.00000000000000E+00  -2.80850332967574E-13
     -2.14912098086740E-11  -2.17720601416415E-11  -1.49565908742638E-17   9.00000000000000E-02   9.00000000000000E-02
      0.00000000000000E+00   0.00000000000000E+00   0.00000000000000E+00   0.00000000000000E+00   0.00000000000000E+00
     -5.58631482896975E-17   2.50000000000000E-01   2.50000000000000E-01   0.00000000000000E+00   0.00000000000000E+00
      2.17680842804949E-11   3.97586114662245E-15   2.17720601416415E-11   1.19290072835315E-17   3.00000000000000E-01
      3.00000000000000E-01   0.00000000000000E+00   0.00000000000000E+00   0.00000000000000E+00   0.00000000000000E+00
      0.00000000000000E+00   5.88907318804299E-17
      2.40000000000000E-01
      0.00000000000000E+00   0.00000000000000E+00   0.00000000000000E+00   0.00000000000000E+00  -2.82927154097026E-13
     -2.06121889131572E-11  -2.08951160672542E-11  -1.50209965748560E-17   9.60000000000000E-02   9.60000000000000E-02
      0.00000000000000E+00   0.00000000000000E+00   0.00000000000000E+00   0.00000000000000E+00   0.00000000000000E+00
     -5.41587984416844E-17   2.50000000000000E-01   2.50000000000000E-01   0.00000000000000E+00   0.00000000000000E+00
      2.08911797696807E-11   3.93629757342714E-15   2.08951160672542E-11   1.18633955383337E-17   3.00000000000000E-01
      3.00000000000000E-01   0.00000000000000E+00   0.00000000000000E+00   0.00000000000000E+00   0.00000000000000E+00
      0.00000000000000E+00   5.73163994782067E-17
      2.55000000000000E-01
      0.00000000000000E+00   0.00000000000000E+00   0.00000000000000E+00   0.00000000000000E+00  -2.85006498322203E-13
     -1.98099438964394E-11  -2.00949503947616E-11  -1.50853899257155E-17   1.02000000000000E-01   1.02000000000000E-01
      0.00000000000000E+00   0.00000000000000E+00   0.00000000000000E+00   0.00000000000000E+00   0.00000000000000E+00
     -5.24544312085169E-17   2.50000000000000E-01   2.50000000000000E-01   0.00000000000000E+00   0.00000000000000E+00
      2.00910535709475E-11   3.89682381398177E-15   2.00949503947615E-11   1.17977366709981E-17   3.00000000000000E-01
      3.00000000000000E-01   0.00000000000000E+00   0.00000000000000E+00   0.00000000000000E+00   0.00000000000000E+00
      0.00000000000000E+00   5.57420844632344E-17
      2.70000000000000E-01
      0.00000000000000E+00   0.00000000000000E+00   0.00000000000000E+00   0.00000000000000E+00  -2.87088322647009E-13
     -1.90779955502821E-11  -1.93650838729291E-11  -1.51497712278117E-17   1.08000000000000E-01   1.08000000000000E-01
      0.00000000000000E+00   0.00000000000000E+00   0.00000000000000E+00   0.00000000000000E+00   0.00000000000000E+00
     -5.07500457105218E-17   2.50000000000000E-01   2.50000000000000E-01   0.00000000000000E+00   0.00000000000000E+00
      1.93612264319593E-11   3.85744096977751E-15   1.93650838729290E-11   1.17320292230947E-17   3.00000000000000E-01
      3.00000000000000E-01   0.00000000000000E+00   0.00000000000000E+00   0.00000000000000E+00   0.00000000000000E+00
      0.00000000000000E+00   5.41677877152388E-17
      2.85000000000000E-01
      0.00000000000000E+00   0.00000000000000E+00   0.00000000000000E+00   0.00000000000000E+00  -2.89172583943370E-13
     -1.84107384504863E-11  -1.86999110344297E-11  -1.52141407735137E-17   1.14000000000000E-01   1.14000000000000E-01
      0.00000000000000E+00   0.00000000000000E+00   0.00000000000000E+00   0.00000000000000E+00   0.00000000000000E+00
     -4.90456410467247E-17   2.50000000000000E-01   2.50000000000000E-01   0.00000000000000E+00   0.00000000000000E+00
      1.86960928839350E-11   3.81815049465394E-15   1.86999110344297E-11   1.16662716849952E-17   3.00000000000000E-01
      3.00000000000000E-01   0.00000000000000E+00   0.00000000000000E+00   0.00000000000000E+00   0.00000000000000E+00
      0.00000000000000E+00   5.25935101352432E-17
      3.00000000000000E-01
      0.00000000000000E+00   0.00000000000000E+00   0.00000000000000E+00   0.00000000000000E+00  -2.91259238880298E-13
     -1.78033629395999E-11  -1.80946221784802E-11  -1.52784988468669E-17   1.20000000000000E-01   1.20000000000000E-01
      0.00000000000000E+00   0.00000000000000E+00   0.00000000000000E+00   0.00000000000000E+00   0.00000000000000E+00
     -4.73412162937238E-17   2.50000000000000E-01   2.50000000000000E-01   0.00000000000000E+00   0.00000000000000E+00
      1.80908432242910E-11   3.77895418914397E-15   1.80946221784802E-11   1.16004624938994E-17   3.00000000000000E-01
      3.00000000000000E-01   0.00000000000000E+00   0.00000000000000E+00   0.00000000000000E+00   0.00000000000000E+00
      0.00000000000000E+00   5.10192526466912E-17
      3.15000000000000E-01
      0.00000000000000E+00   0.00000000000000E+00   0.00000000000000E+00   0.00000000000000E+00  -2.93348243835227E-13
     -1.72517850045800E-11  -1.75451332484152E-11  -1.53428457238587E-17   1.26000000000000E-01   1.26000000000000E-01
      0.00000000000000E+00   0.00000000000000E+00   0.00000000000000E+00   0.00000000000000E+00   0.00000000000000E+00
     -4.56367705045268E-17   2.50000000000000E-01   2.50000000000000E-01   0.00000000000000E+00   0.00000000000000E+00
      1.75413933942264E-11   3.73985418873989E-15   1.75451332484152E-11   1.15346000317792E-17   3.00000000000000E-01
      3.00000000000000E-01   0.00000000000000E+00   0.00000000000000E+00   0.00000000000000E+00   0.00000000000000E+00
      0.00000000000000E+00   4.94450161966063E-17
      3.30000000000000E-01
      0.00000000000000E+00   0.00000000000000E+00   0.00000000000000E+00   0.00000000000000E+00  -2.95439554794960E-13
     -1.67525838095589E-11  -1.70480233643539E-11  -1.54071816726757E-17   1.32000000000000E-01   1.32000000000000E-01
      0.00000000000000E+00   0.00000000000000E+00   0.00000000000000E+00   0.00000000000000E+00   0.00000000000000E+00
     -4.39323027073503E-17   2.50000000000000E-01   2.50000000000000E-01   0.00000000000000E+00   0.00000000000000E+00
      1.70443225114056E-11   3.70085294832243E-15   1.70480233643539E-11   1.14686826232371E-17   3.00000000000000E-01
      3.00000000000000E-01   0.00000000000000E+00   0.00000000000000E+00   0.00000000000000E+00   0.00000000000000E+00
      0.00000000000000E+00   4.78708017567889E-17
      3.45000000000000E-01
      0.00000000000000E+00   0.00000000000000E+00   0.00000000000000E+00   0.00000000000000E+00  -2.97533127235136E-13
     -1.63029466427709E-11  -1.66004797700060E-11  -1.54715069539513E-17   1.38000000000000E-01   1.38000000000000E-01
      0.00000000000000E+00   0.00000000000000E+00   0.00000000000000E+00   0.00000000000000E+00   0.00000000000000E+00
     -4.22278119043771E-17   2.50000000000000E-01   2.50000000000000E-01   0.00000000000000E+00   0.00000000000000E+00
      1.65968178167844E-11   3.66195322155438E-15   1.66004797700060E-11   1.14027085332742E-17   3.00000000000000E-01
      3.00000000000000E-01   0.00000000000000E+00   0.00000000000000E+00   0.00000000000000E+00   0.00000000000000E+00
      0.00000000000000E+00   4.62966103250543E-17
      3.60000000000000E-01
      0.00000000000000E+00   0.00000000000000E+00   0.00000000000000E+00   0.00000000000000E+00  -2.99628915979620E-13
     -1.59006210376963E-11  -1.62002499536760E-11  -1.55358218210054E-17   1.44000000000000E-01   1.44000000000000E-01
      0.00000000000000E+00   0.00000000000000E+00   0.00000000000000E+00   0.00000000000000E+00   0.00000000000000E+00
     -4.05232970704709E-17   2.50000000000000E-01   2.50000000000000E-01   0.00000000000000E+00   0.00000000000000E+00
      1.61966267956397E-11   3.62315803626529E-15   1.62002499536760E-11   1.13366759649642E-17   3.00000000000000E-01
      3.00000000000000E-01   0.00000000000000E+00   0.00000000000000E+00   0.00000000000000E+00   0.00000000000000E+00
      0.00000000000000E+00   4.47224429265122E-17
      3.75000000000000E-01
      0.00000000000000E+00   0.00000000000000E+00   0.00000000000000E+00   0.00000000000000E+00  -3.01726875048014E-13
     -1.55438738315821E-11  -1.58456007066301E-11  -1.56001265200745E-17   1.50000000000000E-01   1.50000000000000E-01
      0.00000000000000E+00   0.00000000000000E+00   0.00000000000000E+00   0.00000000000000E+00   0.00000000000000E+00
     -3.88187571518449E-17   2.50000000000000E-01   2.50000000000000E-01   0.00000000000000E+00   0.00000000000000E+00
      1.58420162359630E-11   3.58447066709905E-15   1.58456007066301E-11   1.12705830570272E-17   3.00000000000000E-01
      3.00000000000000E-01   0.00000000000000E+00   0.00000000000000E+00   0.00000000000000E+00   0.00000000000000E+00
      0.00000000000000E+00   4.31483006148922E-17
      3.90000000000000E-01
      0.00000000000000E+00   0.00000000000000E+00   0.00000000000000E+00   0.00000000000000E+00  -3.03826957465244E-13
     -1.52314569297347E-11  -1.55352838872000E-11  -1.56644212905351E-17   1.56000000000000E-01   1.56000000000000E-01
      0.00000000000000E+00   0.00000000000000E+00   0.00000000000000E+00   0.00000000000000E+00   0.00000000000000E+00
     -3.71141910646818E-17   2.50000000000000E-01   2.50000000000000E-01   0.00000000000000E+00   0.00000000000000E+00
      1.55317379925953E-11   3.54589460463565E-15   1.55352838871999E-11   1.12044278813003E-17   3.00000000000000E-01
      3.00000000000000E-01   0.00000000000000E+00   0.00000000000000E+00   0.00000000000000E+00   0.00000000000000E+00
      0.00000000000000E+00   4.15741844739165E-17
      4.05000000000000E-01
      0.00000000000000E+00   0.00000000000000E+00   0.00000000000000E+00   0.00000000000000E+00  -3.05929115056060E-13
     -1.49625795513358E-11  -1.52685086663919E-11  -1.57287063651180E-17   1.62000000000000E-01   1.62000000000000E-01
      0.00000000000000E+00   0.00000000000000E+00   0.00000000000000E+00   0.00000000000000E+00   0.00000000000000E+00
     -3.54095976937020E-17   2.50000000000000E-01   2.50000000000000E-01   0.00000000000000E+00   0.00000000000000E+00
      1.52650012328686E-11   3.50743352321847E-15   1.52685086663919E-11   1.11382084400972E-17   3.00000000000000E-01
      3.00000000000000E-01   0.00000000000000E+00   0.00000000000000E+00   0.00000000000000E+00   0.00000000000000E+00
      0.00000000000000E+00   4.00000956187228E-17
      4.20000000000000E-01
      0.00000000000000E+00   0.00000000000000E+00   0.00000000000000E+00   0.00000000000000E+00  -3.08033298213263E-13
     -1.47368867419133E-11  -1.50449200401266E-11  -1.57929819701164E-17   1.68000000000000E-01   1.68000000000000E-01
      0.00000000000000E+00   0.00000000000000E+00   0.00000000000000E+00   0.00000000000000E+00   0.00000000000000E+00
     -3.37049758906776E-17   2.50000000000000E-01   2.50000000000000E-01   0.00000000000000E+00   0.00000000000000E+00
      1.50414509488790E-11   3.46909124756784E-15   1.50449200401265E-11   1.10719226634531E-17   3.00000000000000E-01
      3.00000000000000E-01   0.00000000000000E+00   0.00000000000000E+00   0.00000000000000E+00   0.00000000000000E+00
      0.00000000000000E+00   3.84260351973409E-17
      4.35000000000000E-01
      0.00000000000000E+00   0.00000000000000E+00   0.00000000000000E+00   0.00000000000000E+00  -3.10139455616832E-13
     -1.45544439489357E-11  -1.48645834045526E-11  -1.58572483255855E-17   1.74000000000000E-01   1.74000000000000E-01
      0.00000000000000E+00   0.00000000000000E+00   0.00000000000000E+00   0.00000000000000E+00   0.00000000000000E+00
     -3.20003244728879E-17   2.50000000000000E-01   2.50000000000000E-01   0.00000000000000E+00   0.00000000000000E+00
      1.48611525328340E-11   3.43087171859985E-15   1.48645834045526E-11   1.10055684062481E-17   3.00000000000000E-01
      3.00000000000000E-01   0.00000000000000E+00   0.00000000000000E+00   0.00000000000000E+00   0.00000000000000E+00
      0.00000000000000E+00   3.68520043922254E-17
      4.50000000000000E-01
      0.00000000000000E+00   0.00000000000000E+00   0.00000000000000E+00   0.00000000000000E+00  -3.12247533936850E-13
     -1.44157274701352E-11  -1.47279750040720E-11  -1.59215056455362E-17   1.80000000000000E-01   1.80000000000000E-01
      0.00000000000000E+00   0.00000000000000E+00   0.00000000000000E+00   0.00000000000000E+00   0.00000000000000E+00
     -3.02956422215133E-17   2.50000000000000E-01   2.50000000000000E-01   0.00000000000000E+00   0.00000000000000E+00
      1.47245822251118E-11   3.39277896016551E-15   1.47279750040720E-11   1.09391434452013E-17   3.00000000000000E-01
      3.00000000000000E-01   0.00000000000000E+00   0.00000000000000E+00   0.00000000000000E+00   0.00000000000000E+00
      0.00000000000000E+00   3.52780044218481E-17
      4.65000000000000E-01
      0.00000000000000E+00   0.00000000000000E+00   0.00000000000000E+00   0.00000000000000E+00  -3.14357477491746E-13
     -1.43216205989229E-11  -1.46359780764147E-11  -1.59857541381211E-17   1.86000000000000E-01   1.86000000000000E-01
      0.00000000000000E+00   0.00000000000000E+00   0.00000000000000E+00   0.00000000000000E+00   0.00000000000000E+00
     -2.85909278799639E-17   2.50000000000000E-01   2.50000000000000E-01   0.00000000000000E+00   0.00000000000000E+00
      1.46326232593682E-11   3.35481704643490E-15   1.46359780764147E-11   1.08726454757306E-17   3.00000000000000E-01
      3.00000000000000E-01   0.00000000000000E+00   0.00000000000000E+00   0.00000000000000E+00   0.00000000000000E+00
      0.00000000000000E+00   3.37040365423544E-17
      4.80000000000000E-01
      0.00000000000000E+00   0.00000000000000E+00   0.00000000000000E+00   0.00000000000000E+00  -3.16469227836984E-13
     -1.42734153074625E-11  -1.45898845352994E-11  -1.60499940058150E-17   1.92000000000000E-01   1.92000000000000E-01
      0.00000000000000E+00   0.00000000000000E+00   0.00000000000000E+00   0.00000000000000E+00   0.00000000000000E+00
     -2.68861801521384E-17   2.50000000000000E-01   2.50000000000000E-01   0.00000000000000E+00   0.00000000000000E+00
      1.45865675452281E-11   3.31699007130375E-15   1.45898845352994E-11   1.08060721086677E-17   3.00000000000000E-01
      3.00000000000000E-01   0.00000000000000E+00   0.00000000000000E+00   0.00000000000000E+00   0.00000000000000E+00
      0.00000000000000E+00   3.21301020492856E-17
      4.95000000000000E-01
      0.00000000000000E+00   0.00000000000000E+00   0.00000000000000E+00   0.00000000000000E+00  -3.18582723352728E-13
     -1.42728193253509E-11  -1.45914020487036E-11  -1.61142254455879E-17   1.98000000000000E-01   1.98000000000000E-01
      0.00000000000000E+00   0.00000000000000E+00   0.00000000000000E+00   0.00000000000000E+00   0.00000000000000E+00
     -2.51813977006089E-17   2.50000000000000E-01   2.50000000000000E-01   0.00000000000000E+00   0.00000000000000E+00
      1.45881227465833E-11   3.27930212036415E-15   1.45914020487036E-11   1.07394208668233E-17   3.00000000000000E-01
      3.00000000000000E-01   0.00000000000000E+00   0.00000000000000E+00   0.00000000000000E+00   0.00000000000000E+00
      0.00000000000000E+00   3.05562022793735E-17
      5.10000000000000E-01
      0.00000000000000E+00   0.00000000000000E+00   0.00000000000000E+00   0.00000000000000E+00  -3.20697898724605E-13
     -1.43219684901904E-11  -1.46426663889150E-11  -1.61784486490735E-17   2.04000000000000E-01   2.04000000000000E-01
      0.00000000000000E+00   0.00000000000000E+00   0.00000000000000E+00   0.00000000000000E+00   0.00000000000000E+00
     -2.34765791447267E-17   2.50000000000000E-01   2.50000000000000E-01   0.00000000000000E+00   0.00000000000000E+00
      1.46394246316699E-11   3.24175724506852E-15   1.46426663889150E-11   1.06726891813901E-17   3.00000000000000E-01
      3.00000000000000E-01   0.00000000000000E+00   0.00000000000000E+00   0.00000000000000E+00   0.00000000000000E+00
      0.00000000000000E+00   2.89823386124102E-17
      5.25000000000000E-01
      0.00000000000000E+00   0.00000000000000E+00   0.00000000000000E+00   0.00000000000000E+00  -3.22814684395211E-13
     -1.44234442653339E-11  -1.47462589497291E-11  -1.62426638027298E-17   2.10000000000000E-01   2.10000000000000E-01
      0.00000000000000E+00   0.00000000000000E+00   0.00000000000000E+00   0.00000000000000E+00   0.00000000000000E+00
     -2.17717230586440E-17   2.50000000000000E-01   2.50000000000000E-01   0.00000000000000E+00   0.00000000000000E+00
      1.47430545902884E-11   3.20435944073340E-15   1.47462589497291E-11   1.06058743881762E-17   3.00000000000000E-01
      3.00000000000000E-01   0.00000000000000E+00   0.00000000000000E+00   0.00000000000000E+00   0.00000000000000E+00
      0.00000000000000E+00   2.74085124731976E-17
      5.40000000000000E-01
      0.00000000000000E+00   0.00000000000000E+00   0.00000000000000E+00   0.00000000000000E+00  -3.24933005920601E-13
     -1.45802963394703E-11  -1.49052293453909E-11  -1.63068710879961E-17   2.16000000000000E-01   2.16000000000000E-01
      0.00000000000000E+00   0.00000000000000E+00   0.00000000000000E+00   0.00000000000000E+00   0.00000000000000E+00
     -2.00668279692452E-17   2.50000000000000E-01   2.50000000000000E-01   0.00000000000000E+00   0.00000000000000E+00
      1.49020622327635E-11   3.16711262742924E-15   1.49052293453909E-11   1.05389737236572E-17   3.00000000000000E-01
      3.00000000000000E-01   0.00000000000000E+00   0.00000000000000E+00   0.00000000000000E+00   0.00000000000000E+00
      0.00000000000000E+00   2.58347253335842E-17
      5.55000000000000E-01
      0.00000000000000E+00   0.00000000000000E+00   0.00000000000000E+00   0.00000000000000E+00  -3.27052783291884E-13