DF-ISE text

Info {
  version   = 1.0
  type      = xyplot
  datasets  = [
    "time"
    "source OuterVoltage" "source InnerVoltage" "source QuasiFermiPotential" "source DisplacementCurrent" "source eCurrent"
    "source hCurrent" "source TotalCurrent" "source Charge" "topGate OuterVoltage" "topGate InnerVoltage"
    "topGate QuasiFermiPotential" "topGate DisplacementCurrent" "topGate eCurrent" "topGate hCurrent" "topGate TotalCurrent"
    "topGate Charge" "drain OuterVoltage" "drain InnerVoltage" "drain QuasiFermiPotential" "drain DisplacementCurrent"
    "drain eCurrent" "drain hCurrent" "drain TotalCurrent" "drain Charge" "bottomGate OuterVoltage"
    "bottomGate InnerVoltage" "bottomGate QuasiFermiPotential" "bottomGate DisplacementCurrent" "bottomGate eCurrent" "bottomGate hCurrent"
    "bottomGate TotalCurrent" "bottomGate Charge" ]
  functions = [
    Time
    OuterVoltage InnerVoltage QuasiFermiPotential DisplacementCurrent eCurrent
    hCurrent TotalCurrent Charge OuterVoltage InnerVoltage
    QuasiFermiPotential DisplacementCurrent eCurrent hCurrent TotalCurrent
    Charge OuterVoltage InnerVoltage QuasiFermiPotential DisplacementCurrent
    eCurrent hCurrent TotalCurrent Charge OuterVoltage
    InnerVoltage QuasiFermiPotential DisplacementCurrent eCurrent hCurrent
    TotalCurrent Charge ]
}

Data {
      1.50000000000000E-02
      0.00000000000000E+00   0.00000000000000E+00   0.00000000000000E+00   0.00000000000000E+00  -2.75509256562590E-13
     -1.80101574151204E-10  -1.80377083407767E-10  -1.49135758205458E-17   6.00000000000000E-03   6.00000000000000E-03
      0.00000000000000E+00   0.00000000000000E+00   0.00000000000000E+00   0.00000000000000E+00   0.00000000000000E+00
     -9.91425595509775E-17   1.10000000000000E-01   1.10000000000000E-01   0.00000000000000E+00   0.00000000000000E+00
      1.80375424890195E-10   1.65851757171058E-15   1.80377083407767E-10   8.82738018807348E-18   3.80000000000000E-01
      3.80000000000000E-01   0.00000000000000E+00   0.00000000000000E+00   0.00000000000000E+00   0.00000000000000E+00
      0.00000000000000E+00   1.05228755183450E-16
      3.00000000000000E-02
      0.00000000000000E+00   0.00000000000000E+00   0.00000000000000E+00   0.00000000000000E+00  -2.77555742599179E-13
     -1.73532753715519E-10  -1.73810309458118E-10  -1.49779895098623E-17   1.20000000000000E-02   1.20000000000000E-02
      0.00000000000000E+00   0.00000000000000E+00   0.00000000000000E+00   0.00000000000000E+00   0.00000000000000E+00
     -9.74357234600303E-17   1.10000000000000E-01   1.10000000000000E-01   0.00000000000000E+00   0.00000000000000E+00
      1.73808626114545E-10   1.68334357356585E-15   1.73810309458118E-10   8.75679332544237E-18   3.80000000000000E-01
      3.80000000000000E-01   0.00000000000000E+00   0.00000000000000E+00   0.00000000000000E+00   0.00000000000000E+00
      0.00000000000000E+00   1.03656919644450E-16
      4.50000000000000E-02
      0.00000000000000E+00   0.00000000000000E+00   0.00000000000000E+00   0.00000000000000E+00  -2.79604662425065E-13
     -1.67276846156636E-10  -1.67556450819061E-10  -1.50423906043720E-17   1.80000000000000E-02   1.80000000000000E-02
      0.00000000000000E+00   0.00000000000000E+00   0.00000000000000E+00   0.00000000000000E+00   0.00000000000000E+00
     -9.57287831543407E-17   1.10000000000000E-01   1.10000000000000E-01   0.00000000000000E+00   0.00000000000000E+00
      1.67554745413529E-10   1.70540553241567E-15   1.67556450819061E-10   8.68598450749882E-18   3.80000000000000E-01
      3.80000000000000E-01   0.00000000000000E+00   0.00000000000000E+00   0.00000000000000E+00   0.00000000000000E+00
      0.00000000000000E+00   1.02085189251214E-16
      6.00000000000000E-02
      0.00000000000000E+00   0.00000000000000E+00   0.00000000000000E+00   0.00000000000000E+00  -2.81655982908052E-13
     -1.61315051488409E-10  -1.61596707471317E-10  -1.51067794069599E-17   2.40000000000000E-02   2.40000000000000E-02
      0.00000000000000E+00   0.00000000000000E+00   0.00000000000000E+00   0.00000000000000E+00   0.00000000000000E+00
     -9.40217342463121E-17   1.10000000000000E-01   1.10000000000000E-01   0.00000000000000E+00   0.00000000000000E+00
      1.61594982913201E-10   1.72455811659413E-15   1.61596707471317E-10   8.61494518381953E-18   3.80000000000000E-01
      3.80000000000000E-01   0.00000000000000E+00   0.00000000000000E+00   0.00000000000000E+00   0.00000000000000E+00
      0.00000000000000E+00   1.00513568469452E-16
      7.50000000000000E-02
      0.00000000000000E+00   0.00000000000000E+00   0.00000000000000E+00   0.00000000000000E+00  -2.83709668983242E-13
     -1.55630304677690E-10  -1.55914014346673E-10  -1.51711562112827E-17   3.00000000000000E-02   3.00000000000000E-02
      0.00000000000000E+00   0.00000000000000E+00   0.00000000000000E+00   0.00000000000000E+00   0.00000000000000E+00
     -9.23145721584681E-17   1.10000000000000E-01   1.10000000000000E-01   0.00000000000000E+00   0.00000000000000E+00
      1.55912273654546E-10   1.74069212694741E-15   1.55914014346673E-10   8.54366640890145E-18   3.80000000000000E-01
      3.80000000000000E-01   0.00000000000000E+00   0.00000000000000E+00   0.00000000000000E+00   0.00000000000000E+00
      0.00000000000000E+00   9.89420619608494E-17
      9.00000000000000E-02
      0.00000000000000E+00   0.00000000000000E+00   0.00000000000000E+00   0.00000000000000E+00  -2.85765685021637E-13
     -1.50207108971913E-10  -1.50492874656934E-10  -1.52355213020021E-17   3.60000000000000E-02   3.60000000000000E-02
      0.00000000000000E+00   0.00000000000000E+00   0.00000000000000E+00   0.00000000000000E+00   0.00000000000000E+00
     -9.06072921117130E-17   1.10000000000000E-01   1.10000000000000E-01   0.00000000000000E+00   0.00000000000000E+00
      1.50491120921893E-10   1.75373504083065E-15   1.50492874656934E-10   8.47213881851780E-18   3.80000000000000E-01
      3.80000000000000E-01   0.00000000000000E+00   0.00000000000000E+00   0.00000000000000E+00   0.00000000000000E+00
      0.00000000000000E+00   9.73706745951972E-17
      1.05000000000000E-01
      0.00000000000000E+00   0.00000000000000E+00   0.00000000000000E+00   0.00000000000000E+00  -2.87823993883423E-13
     -1.45031385088931E-10  -1.45319209082814E-10  -1.52998749550027E-17   4.20000000000000E-02   4.20000000000000E-02
      0.00000000000000E+00   0.00000000000000E+00   0.00000000000000E+00   0.00000000000000E+00   0.00000000000000E+00
     -8.88998891126488E-17   1.10000000000000E-01   1.10000000000000E-01   0.00000000000000E+00   0.00000000000000E+00
      1.45317445431910E-10   1.76365090406347E-15   1.45319209082814E-10   8.40035260416110E-18   3.80000000000000E-01
      3.80000000000000E-01   0.00000000000000E+00   0.00000000000000E+00   0.00000000000000E+00   0.00000000000000E+00
      0.00000000000000E+00   9.57994114634904E-17
      1.20000000000000E-01
      0.00000000000000E+00   0.00000000000000E+00   0.00000000000000E+00   0.00000000000000E+00  -2.89884558303017E-13
     -1.40090334904338E-10  -1.40380219462641E-10  -1.53642174375935E-17   4.80000000000000E-02   4.80000000000000E-02
      0.00000000000000E+00   0.00000000000000E+00   0.00000000000000E+00   0.00000000000000E+00   0.00000000000000E+00
     -8.71923579398532E-17   1.10000000000000E-01   1.10000000000000E-01   0.00000000000000E+00   0.00000000000000E+00
      1.40378449023079E-10   1.77043956303798E-15   1.40380219462642E-10   8.32829748537861E-18   3.80000000000000E-01
      3.80000000000000E-01   0.00000000000000E+00   0.00000000000000E+00   0.00000000000000E+00   0.00000000000000E+00
      0.00000000000000E+00   9.42282778920681E-17
      1.35000000000000E-01
      0.00000000000000E+00   0.00000000000000E+00   0.00000000000000E+00   0.00000000000000E+00  -2.91947338884333E-13
     -1.35372318428131E-10  -1.35664265767015E-10  -1.54285490086928E-17   5.40000000000000E-02   5.40000000000000E-02
      0.00000000000000E+00   0.00000000000000E+00   0.00000000000000E+00   0.00000000000000E+00   0.00000000000000E+00
     -8.54846931290077E-17   1.10000000000000E-01   1.10000000000000E-01   0.00000000000000E+00   0.00000000000000E+00
      1.35662491631766E-10   1.77413524887171E-15   1.35664265767015E-10   8.25596267978445E-18   3.80000000000000E-01
      3.80000000000000E-01   0.00000000000000E+00   0.00000000000000E+00   0.00000000000000E+00   0.00000000000000E+00
      0.00000000000000E+00   9.26572794579160E-17
      1.50000000000000E-01
      0.00000000000000E+00   0.00000000000000E+00   0.00000000000000E+00   0.00000000000000E+00  -2.94012295216497E-13
     -1.30866742997443E-10  -1.31160755292660E-10  -1.54928699189972E-17   6.00000000000000E-02   6.00000000000000E-02
      0.00000000000000E+00   0.00000000000000E+00   0.00000000000000E+00   0.00000000000000E+00   0.00000000000000E+00
     -8.37768889567540E-17   1.10000000000000E-01   1.10000000000000E-01   0.00000000000000E+00   0.00000000000000E+00
      1.31158980488113E-10   1.77480454620461E-15   1.31160755292660E-10   8.18333687050701E-18   3.80000000000000E-01
      3.80000000000000E-01   0.00000000000000E+00   0.00000000000000E+00   0.00000000000000E+00   0.00000000000000E+00
      0.00000000000000E+00   9.10864220052442E-17
      1.65000000000000E-01
      0.00000000000000E+00   0.00000000000000E+00   0.00000000000000E+00   0.00000000000000E+00  -2.96079386623155E-13
     -1.26563963727283E-10  -1.26860043113906E-10  -1.55571804111317E-17   6.60000000000000E-02   6.60000000000000E-02
      0.00000000000000E+00   0.00000000000000E+00   0.00000000000000E+00   0.00000000000000E+00   0.00000000000000E+00
     -8.20689394231439E-17   1.10000000000000E-01   1.10000000000000E-01   0.00000000000000E+00   0.00000000000000E+00
      1.26858270570113E-10   1.77254379330259E-15   1.26860043113906E-10   8.11040817080423E-18   3.80000000000000E-01
      3.80000000000000E-01   0.00000000000000E+00   0.00000000000000E+00   0.00000000000000E+00   0.00000000000000E+00
      0.00000000000000E+00   8.95157116634714E-17
      1.80000000000000E-01
      0.00000000000000E+00   0.00000000000000E+00   0.00000000000000E+00   0.00000000000000E+00  -2.98148569777295E-13
     -1.22455194358907E-10  -1.22753342928685E-10  -1.56214807197824E-17   7.20000000000000E-02   7.20000000000000E-02
      0.00000000000000E+00   0.00000000000000E+00   0.00000000000000E+00   0.00000000000000E+00   0.00000000000000E+00
     -8.03608382325288E-17   1.10000000000000E-01   1.10000000000000E-01   0.00000000000000E+00   0.00000000000000E+00
      1.22751575452707E-10   1.76747597749292E-15   1.22753342928685E-10   8.03716408554726E-18   3.80000000000000E-01
      3.80000000000000E-01   0.00000000000000E+00   0.00000000000000E+00   0.00000000000000E+00   0.00000000000000E+00
      0.00000000000000E+00   8.79451548667640E-17
      1.95000000000000E-01
      0.00000000000000E+00   0.00000000000000E+00   0.00000000000000E+00   0.00000000000000E+00  -3.00219801536636E-13
     -1.18532427728042E-10  -1.18832647529579E-10  -1.56857710718098E-17   7.80000000000000E-02   7.80000000000000E-02
      0.00000000000000E+00   0.00000000000000E+00   0.00000000000000E+00   0.00000000000000E+00   0.00000000000000E+00
     -7.86525787727207E-17   1.10000000000000E-01   1.10000000000000E-01   0.00000000000000E+00   0.00000000000000E+00
      1.18830887782370E-10   1.75974720866285E-15   1.18832647529579E-10   7.96359146923992E-18   3.80000000000000E-01
      3.80000000000000E-01   0.00000000000000E+00   0.00000000000000E+00   0.00000000000000E+00   0.00000000000000E+00
      0.00000000000000E+00   8.63747583752907E-17
      2.10000000000000E-01
      0.00000000000000E+00   0.00000000000000E+00   0.00000000000000E+00   0.00000000000000E+00  -3.02293034744822E-13
     -1.14788365144776E-10  -1.15090658179521E-10  -1.57500516863414E-17   8.40000000000000E-02   8.40000000000000E-02
      0.00000000000000E+00   0.00000000000000E+00   0.00000000000000E+00   0.00000000000000E+00   0.00000000000000E+00
     -7.69441540922353E-17   1.10000000000000E-01   1.10000000000000E-01   0.00000000000000E+00   0.00000000000000E+00
      1.15088908656659E-10   1.74952286250011E-15   1.15090658179521E-10   7.88967648020209E-18   3.80000000000000E-01
      3.80000000000000E-01   0.00000000000000E+00   0.00000000000000E+00   0.00000000000000E+00   0.00000000000000E+00
      0.00000000000000E+00   8.48045292983747E-17
      2.25000000000000E-01
      0.00000000000000E+00   0.00000000000000E+00   0.00000000000000E+00   0.00000000000000E+00  -3.04368222373834E-13
     -1.11216354035941E-10  -1.11520722258315E-10  -1.58143227748435E-17   9.00000000000000E-02   9.00000000000000E-02
      0.00000000000000E+00   0.00000000000000E+00   0.00000000000000E+00   0.00000000000000E+00   0.00000000000000E+00
     -7.52355568754039E-17   1.10000000000000E-01   1.10000000000000E-01   0.00000000000000E+00   0.00000000000000E+00
      1.11518985274817E-10   1.73698349866898E-15   1.11520722258315E-10   7.81540453050346E-18   3.80000000000000E-01
      3.80000000000000E-01   0.00000000000000E+00   0.00000000000000E+00   0.00000000000000E+00   0.00000000000000E+00
      0.00000000000000E+00   8.32344751197439E-17
      2.40000000000000E-01
      0.00000000000000E+00   0.00000000000000E+00   0.00000000000000E+00   0.00000000000000E+00  -3.06445314686896E-13
     -1.07810333251117E-10  -1.08116778565804E-10  -1.58785845411692E-17   9.60000000000000E-02   9.60000000000000E-02
      0.00000000000000E+00   0.00000000000000E+00   0.00000000000000E+00   0.00000000000000E+00   0.00000000000000E+00
     -7.35267794151196E-17   1.10000000000000E-01   1.10000000000000E-01   0.00000000000000E+00   0.00000000000000E+00
      1.08115056245140E-10   1.72232066398530E-15   1.08116778565804E-10   7.74076023118514E-18   3.80000000000000E-01
      3.80000000000000E-01   0.00000000000000E+00   0.00000000000000E+00   0.00000000000000E+00   0.00000000000000E+00
      0.00000000000000E+00   8.16646037251036E-17
      2.55000000000000E-01
      0.00000000000000E+00   0.00000000000000E+00   0.00000000000000E+00   0.00000000000000E+00  -3.08524259204588E-13
     -1.04564785477108E-10  -1.04873309736312E-10  -1.59428371815827E-17   1.02000000000000E-01   1.02000000000000E-01
      0.00000000000000E+00   0.00000000000000E+00   0.00000000000000E+00   0.00000000000000E+00   0.00000000000000E+00
     -7.18178135829519E-17   1.10000000000000E-01   1.10000000000000E-01   0.00000000000000E+00   0.00000000000000E+00
      1.04871604003618E-10   1.70573269377886E-15   1.04873309736312E-10   7.66572733225402E-18   3.80000000000000E-01
      3.80000000000000E-01   0.00000000000000E+00   0.00000000000000E+00   0.00000000000000E+00   0.00000000000000E+00
      0.00000000000000E+00   8.00949234322806E-17
      2.70000000000000E-01
      0.00000000000000E+00   0.00000000000000E+00   0.00000000000000E+00   0.00000000000000E+00  -3.10605000352239E-13
     -1.01474696244360E-10  -1.01785301244712E-10  -1.60070808847565E-17   1.08000000000000E-01   1.08000000000000E-01
      0.00000000000000E+00   0.00000000000000E+00   0.00000000000000E+00   0.00000000000000E+00   0.00000000000000E+00
     -7.01086507963345E-17   1.10000000000000E-01   1.10000000000000E-01   0.00000000000000E+00   0.00000000000000E+00
      1.01783613824088E-10   1.68742062352791E-15   1.01785301244712E-10   7.59028865687447E-18   3.80000000000000E-01
      3.80000000000000E-01   0.00000000000000E+00   0.00000000000000E+00   0.00000000000000E+00   0.00000000000000E+00
      0.00000000000000E+00   7.85254430242166E-17
      2.85000000000000E-01
      0.00000000000000E+00   0.00000000000000E+00   0.00000000000000E+00   0.00000000000000E+00  -3.12687482544762E-13
     -9.85355190440550E-11  -9.88482065265998E-11  -1.60713158317403E-17   1.14000000000000E-01   1.14000000000000E-01
      0.00000000000000E+00   0.00000000000000E+00   0.00000000000000E+00   0.00000000000000E+00   0.00000000000000E+00
     -6.83992819824958E-17   1.10000000000000E-01   1.10000000000000E-01   0.00000000000000E+00   0.00000000000000E+00
      9.88465389422817E-11   1.66758431802873E-15   9.88482065265997E-11   7.51442602911594E-18   3.80000000000000E-01
      3.80000000000000E-01   0.00000000000000E+00   0.00000000000000E+00   0.00000000000000E+00   0.00000000000000E+00
      0.00000000000000E+00   7.69561717851201E-17
      3.00000000000000E-01
      0.00000000000000E+00   0.00000000000000E+00   0.00000000000000E+00   0.00000000000000E+00  -3.14771640195790E-13
     -9.57431461074536E-11  -9.60579177476494E-11  -1.61355421958984E-17   1.20000000000000E-01   1.20000000000000E-01
      0.00000000000000E+00   0.00000000000000E+00   0.00000000000000E+00   0.00000000000000E+00   0.00000000000000E+00
     -6.66896975387618E-17   1.10000000000000E-01   1.10000000000000E-01   0.00000000000000E+00   0.00000000000000E+00
      9.60562713287368E-11   1.64641891268583E-15   9.60579177476495E-11   7.43812019453905E-18   3.80000000000000E-01
      3.80000000000000E-01   0.00000000000000E+00   0.00000000000000E+00   0.00000000000000E+00   0.00000000000000E+00
      0.00000000000000E+00   7.53871195401211E-17
      3.15000000000000E-01
      0.00000000000000E+00   0.00000000000000E+00   0.00000000000000E+00   0.00000000000000E+00  -3.16857409244043E-13
     -9.30938844308152E-11  -9.34107418400593E-11  -1.61997601428137E-17   1.26000000000000E-01   1.26000000000000E-01
      0.00000000000000E+00   0.00000000000000E+00   0.00000000000000E+00   0.00000000000000E+00   0.00000000000000E+00
     -6.49798872888185E-17   1.10000000000000E-01   1.10000000000000E-01   0.00000000000000E+00   0.00000000000000E+00
      9.34091177284072E-11   1.62411165210160E-15   9.34107418400593E-11   7.36135073282147E-18   3.80000000000000E-01
      3.80000000000000E-01   0.00000000000000E+00   0.00000000000000E+00   0.00000000000000E+00   0.00000000000000E+00
      0.00000000000000E+00   7.38182966988107E-17
      3.30000000000000E-01
      0.00000000000000E+00   0.00000000000000E+00   0.00000000000000E+00   0.00000000000000E+00  -3.18944719772865E-13
     -9.05844366603706E-11  -9.09033813801435E-11  -1.62639698301540E-17   1.32000000000000E-01   1.32000000000000E-01
      0.00000000000000E+00   0.00000000000000E+00   0.00000000000000E+00   0.00000000000000E+00   0.00000000000000E+00
     -6.32698404344707E-17   1.10000000000000E-01   1.10000000000000E-01   0.00000000000000E+00   0.00000000000000E+00
      9.09017805409534E-11   1.60083919016078E-15   9.09033813801436E-11   7.28409596152979E-18   3.80000000000000E-01
      3.80000000000000E-01   0.00000000000000E+00   0.00000000000000E+00   0.00000000000000E+00   0.00000000000000E+00
      0.00000000000000E+00   7.22497143030948E-17
      3.45000000000000E-01
      0.00000000000000E+00   0.00000000000000E+00   0.00000000000000E+00   0.00000000000000E+00  -3.21033495316528E-13
     -8.82118864831034E-11  -8.85329199784199E-11  -1.63281714074983E-17   1.38000000000000E-01   1.38000000000000E-01
      0.00000000000000E+00   0.00000000000000E+00   0.00000000000000E+00   0.00000000000000E+00   0.00000000000000E+00
     -6.15595455023795E-17   1.10000000000000E-01   1.10000000000000E-01   0.00000000000000E+00   0.00000000000000E+00
      8.85313432130212E-11   1.57676539877530E-15   8.85329199784199E-11   7.20633283004098E-18   3.80000000000000E-01
      3.80000000000000E-01   0.00000000000000E+00   0.00000000000000E+00   0.00000000000000E+00   0.00000000000000E+00
      0.00000000000000E+00   7.06813840798367E-17
      3.60000000000000E-01
      0.00000000000000E+00   0.00000000000000E+00   0.00000000000000E+00   0.00000000000000E+00  -3.23123653343228E-13
     -8.59736882008015E-11  -8.62968118541447E-11  -1.63923650161175E-17   1.44000000000000E-01   1.44000000000000E-01
      0.00000000000000E+00   0.00000000000000E+00   0.00000000000000E+00   0.00000000000000E+00   0.00000000000000E+00
     -5.98489902852002E-17   1.10000000000000E-01   1.10000000000000E-01   0.00000000000000E+00   0.00000000000000E+00
      8.62952598144340E-11   1.55203971068203E-15   8.62968118541447E-11   7.12803680250044E-18   3.80000000000000E-01
      3.80000000000000E-01   0.00000000000000E+00   0.00000000000000E+00   0.00000000000000E+00   0.00000000000000E+00
      0.00000000000000E+00   6.91133184988173E-17
      3.75000000000000E-01
      0.00000000000000E+00   0.00000000000000E+00   0.00000000000000E+00   0.00000000000000E+00  -3.25215104530315E-13
     -8.38676601971094E-11  -8.41928753016398E-11  -1.64565507887063E-17   1.50000000000000E-01   1.50000000000000E-01
      0.00000000000000E+00   0.00000000000000E+00   0.00000000000000E+00   0.00000000000000E+00   0.00000000000000E+00
     -5.81381617764723E-17   1.10000000000000E-01   1.10000000000000E-01   0.00000000000000E+00   0.00000000000000E+00
      8.41913485056401E-11   1.52679599968522E-15   8.41928753016398E-11   7.04918172857419E-18   3.80000000000000E-01
      3.80000000000000E-01   0.00000000000000E+00   0.00000000000000E+00   0.00000000000000E+00   0.00000000000000E+00
      0.00000000000000E+00   6.75455308366044E-17
      3.90000000000000E-01
      0.00000000000000E+00   0.00000000000000E+00   0.00000000000000E+00   0.00000000000000E+00  -3.27307755146205E-13
     -8.18919820402524E-11  -8.22192897953986E-11  -1.65207288490600E-17   1.56000000000000E-01   1.56000000000000E-01
      0.00000000000000E+00   0.00000000000000E+00   0.00000000000000E+00   0.00000000000000E+00   0.00000000000000E+00
     -5.64270460985375E-17   1.10000000000000E-01   1.10000000000000E-01   0.00000000000000E+00   0.00000000000000E+00
      8.22177886434183E-11   1.50115198023787E-15   8.22192897953985E-11   6.96973970060846E-18   3.80000000000000E-01
      3.80000000000000E-01   0.00000000000000E+00   0.00000000000000E+00   0.00000000000000E+00   0.00000000000000E+00
      0.00000000000000E+00   6.59780352469891E-17
      4.05000000000000E-01
      0.00000000000000E+00   0.00000000000000E+00   0.00000000000000E+00   0.00000000000000E+00  -3.29401494853716E-13
     -8.00451949975003E-11  -8.03745964923540E-11  -1.65848993116911E-17   1.62000000000000E-01   1.62000000000000E-01
      0.00000000000000E+00   0.00000000000000E+00   0.00000000000000E+00   0.00000000000000E+00   0.00000000000000E+00
     -5.47156284226755E-17   1.10000000000000E-01   1.10000000000000E-01   0.00000000000000E+00   0.00000000000000E+00
      8.03731212832644E-11   1.47520908958586E-15   8.03745964923539E-11   6.88968089564831E-18   3.80000000000000E-01
      3.80000000000000E-01   0.00000000000000E+00   0.00000000000000E+00   0.00000000000000E+00   0.00000000000000E+00
      0.00000000000000E+00   6.44108468387183E-17
      4.20000000000000E-01
      0.00000000000000E+00   0.00000000000000E+00   0.00000000000000E+00   0.00000000000000E+00  -3.31496212304304E-13
     -7.83262057712031E-11  -7.86577019835074E-11  -1.66490622813782E-17   1.68000000000000E-01   1.68000000000000E-01
      0.00000000000000E+00   0.00000000000000E+00   0.00000000000000E+00   0.00000000000000E+00   0.00000000000000E+00
     -5.30038928805512E-17   1.10000000000000E-01   1.10000000000000E-01   0.00000000000000E+00   0.00000000000000E+00
      7.86562529307096E-11   1.44905279767333E-15   7.86577019835073E-11   6.80897340058823E-18   3.80000000000000E-01
      3.80000000000000E-01   0.00000000000000E+00   0.00000000000000E+00   0.00000000000000E+00   0.00000000000000E+00
      0.00000000000000E+00   6.28439817613411E-17
      4.35000000000000E-01
      0.00000000000000E+00   0.00000000000000E+00   0.00000000000000E+00   0.00000000000000E+00  -3.33591780181793E-13
     -7.67342932999390E-11  -7.70678850801208E-11  -1.67132178526404E-17   1.74000000000000E-01   1.74000000000000E-01
      0.00000000000000E+00   0.00000000000000E+00   0.00000000000000E+00   0.00000000000000E+00   0.00000000000000E+00
     -5.12918224659612E-17   1.10000000000000E-01   1.10000000000000E-01   0.00000000000000E+00   0.00000000000000E+00
      7.70664623268446E-11   1.42275327589810E-15   7.70678850801205E-11   6.72758301852639E-18   3.80000000000000E-01
      3.80000000000000E-01   0.00000000000000E+00   0.00000000000000E+00   0.00000000000000E+00   0.00000000000000E+00
      0.00000000000000E+00   6.12774573000752E-17
      4.50000000000000E-01
      0.00000000000000E+00   0.00000000000000E+00   0.00000000000000E+00   0.00000000000000E+00  -3.35688056041269E-13
     -7.52691185017475E-11  -7.56048065577887E-11  -1.67773661091292E-17   1.80000000000000E-01   1.80000000000000E-01
      0.00000000000000E+00   0.00000000000000E+00   0.00000000000000E+00   0.00000000000000E+00   0.00000000000000E+00
     -4.95793989257452E-17   1.10000000000000E-01   1.10000000000000E-01   0.00000000000000E+00   0.00000000000000E+00
      7.56034101914405E-11   1.39636634810255E-15   7.56048065577886E-11   6.64547305417293E-18   3.80000000000000E-01
      3.80000000000000E-01   0.00000000000000E+00   0.00000000000000E+00   0.00000000000000E+00   0.00000000000000E+00
      0.00000000000000E+00   5.97112919807014E-17
      4.65000000000000E-01
      0.00000000000000E+00   0.00000000000000E+00   0.00000000000000E+00   0.00000000000000E+00  -3.37784887299216E-13
     -7.39307368691068E-11  -7.42685217564061E-11  -1.68415071229260E-17   1.86000000000000E-01   1.86000000000000E-01
      0.00000000000000E+00   0.00000000000000E+00   0.00000000000000E+00   0.00000000000000E+00   0.00000000000000E+00
     -4.78666026385990E-17   1.10000000000000E-01   1.10000000000000E-01   0.00000000000000E+00   0.00000000000000E+00
      7.42671518217657E-11   1.36993464026207E-15   7.42685217564060E-11   6.56260407591393E-18   3.80000000000000E-01
      3.80000000000000E-01   0.00000000000000E+00   0.00000000000000E+00   0.00000000000000E+00   0.00000000000000E+00
      0.00000000000000E+00   5.81455056856111E-17
      4.80000000000000E-01
      0.00000000000000E+00   0.00000000000000E+00   0.00000000000000E+00   0.00000000000000E+00  -3.39882104862320E-13
     -7.27196138569070E-11  -7.30594959617693E-11  -1.69056409537384E-17   1.92000000000000E-01   1.92000000000000E-01
      0.00000000000000E+00   0.00000000000000E+00   0.00000000000000E+00   0.00000000000000E+00   0.00000000000000E+00
     -4.61534124803741E-17   1.10000000000000E-01   1.10000000000000E-01   0.00000000000000E+00   0.00000000000000E+00
      7.30581524729240E-11   1.34348884531892E-15   7.30594959617693E-11   6.47893365185870E-18   3.80000000000000E-01
      3.80000000000000E-01   0.00000000000000E+00   0.00000000000000E+00   0.00000000000000E+00   0.00000000000000E+00
      0.00000000000000E+00   5.65801197822538E-17
      4.95000000000000E-01
      0.00000000000000E+00   0.00000000000000E+00   0.00000000000000E+00   0.00000000000000E+00  -3.41979516365180E-13
     -7.16366430347684E-11  -7.19786225511336E-11  -1.69697676479787E-17   1.98000000000000E-01   1.98000000000000E-01
      0.00000000000000E+00   0.00000000000000E+00   0.00000000000000E+00   0.00000000000000E+00   0.00000000000000E+00
     -4.44398056742852E-17   1.10000000000000E-01   1.10000000000000E-01   0.00000000000000E+00   0.00000000000000E+00
      7.19773055021094E-11   1.31704902422864E-15   7.19786225511336E-11   6.39441605689169E-18   3.80000000000000E-01
      3.80000000000000E-01   0.00000000000000E+00   0.00000000000000E+00   0.00000000000000E+00   0.00000000000000E+00
      0.00000000000000E+00   5.50151572653722E-17
      5.10000000000000E-01
      0.00000000000000E+00   0.00000000000000E+00   0.00000000000000E+00   0.00000000000000E+00  -3.44076918623826E-13
     -7.06831670033007E-11  -7.10272439219245E-11  -1.70338872377157E-17   2.04000000000000E-01   2.04000000000000E-01
      0.00000000000000E+00   0.00000000000000E+00   0.00000000000000E+00   0.00000000000000E+00   0.00000000000000E+00
     -4.27257576242649E-17   1.10000000000000E-01   1.10000000000000E-01   0.00000000000000E+00   0.00000000000000E+00
      7.10259532960540E-11   1.29062587038295E-15   7.10272439219244E-11   6.30900194741351E-18   3.80000000000000E-01
      3.80000000000000E-01   0.00000000000000E+00   0.00000000000000E+00   0.00000000000000E+00   0.00000000000000E+00
      0.00000000000000E+00   5.34506429145671E-17
      5.25000000000000E-01
      0.00000000000000E+00   0.00000000000000E+00   0.00000000000000E+00   0.00000000000000E+00  -3.46174075522175E-13
     -6.98610010999471E-11  -7.02071751754693E-11  -1.70979997394807E-17   2.10000000000000E-01   2.10000000000000E-01
      0.00000000000000E+00   0.00000000000000E+00   0.00000000000000E+00   0.00000000000000E+00   0.00000000000000E+00
     -4.10112417295003E-17   1.10000000000000E-01   1.10000000000000E-01   0.00000000000000E+00   0.00000000000000E+00
      7.02059109535938E-11   1.26422187544505E-15   7.02071751754693E-11   6.22263800007994E-18   3.80000000000000E-01
      3.80000000000000E-01   0.00000000000000E+00   0.00000000000000E+00   0.00000000000000E+00   0.00000000000000E+00
      0.00000000000000E+00   5.18866034689010E-17
      5.40000000000000E-01
      0.00000000000000E+00   0.00000000000000E+00   0.00000000000000E+00   0.00000000000000E+00  -3.48270730998393E-13
     -6.91724599436598E-11  -6.95207306746582E-11  -1.71621051529127E-17   2.16000000000000E-01   2.16000000000000E-01
      0.00000000000000E+00   0.00000000000000E+00   0.00000000000000E+00   0.00000000000000E+00   0.00000000000000E+00
     -3.92962291779613E-17   1.10000000000000E-01   1.10000000000000E-01   0.00000000000000E+00   0.00000000000000E+00
      6.95194928423107E-11   1.23783234748635E-15   6.95207306746582E-11   6.13526651043593E-18   3.80000000000000E-01
      3.80000000000000E-01   0.00000000000000E+00   0.00000000000000E+00   0.00000000000000E+00   0.00000000000000E+00
      0.00000000000000E+00   5.03230678204381E-17
      5.55000000000000E-01
      0.00000000000000E+00   0.00000000000000E+00   0.00000000000000E+00   0.00000000000000E+00  -3.50366598502472E-13