DF-ISE text

Info {
  version   = 1.0
  type      = xyplot
  datasets  = [
    "time"
    "source OuterVoltage" "source InnerVoltage" "source QuasiFermiPotential" "source DisplacementCurrent" "source eCurrent"
    "source hCurrent" "source TotalCurrent" "source Charge" "topGate OuterVoltage" "topGate InnerVoltage"
    "topGate QuasiFermiPotential" "topGate DisplacementCurrent" "topGate eCurrent" "topGate hCurrent" "topGate TotalCurrent"
    "topGate Charge" "drain OuterVoltage" "drain InnerVoltage" "drain QuasiFermiPotential" "drain DisplacementCurrent"
    "drain eCurrent" "drain hCurrent" "drain TotalCurrent" "drain Charge" "bottomGate OuterVoltage"
    "bottomGate InnerVoltage" "bottomGate QuasiFermiPotential" "bottomGate DisplacementCurrent" "bottomGate eCurrent" "bottomGate hCurrent"
    "bottomGate TotalCurrent" "bottomGate Charge" ]
  functions = [
    Time
    OuterVoltage InnerVoltage QuasiFermiPotential DisplacementCurrent eCurrent
    hCurrent TotalCurrent Charge OuterVoltage InnerVoltage
    QuasiFermiPotential DisplacementCurrent eCurrent hCurrent TotalCurrent
    Charge OuterVoltage InnerVoltage QuasiFermiPotential DisplacementCurrent
    eCurrent hCurrent TotalCurrent Charge OuterVoltage
    InnerVoltage QuasiFermiPotential DisplacementCurrent eCurrent hCurrent
    TotalCurrent Charge ]
}

Data {
      1.50000000000000E-02
      0.00000000000000E+00   0.00000000000000E+00   0.00000000000000E+00   0.00000000000000E+00  -2.55476033377596E-13
     -1.05894282855006E-10  -1.06149758888384E-10  -1.41611476411856E-17   6.00000000000000E-03   6.00000000000000E-03
      0.00000000000000E+00   0.00000000000000E+00   0.00000000000000E+00   0.00000000000000E+00   0.00000000000000E+00
     -8.33180738273306E-17   3.40000000000000E-01   3.40000000000000E-01   0.00000000000000E+00   0.00000000000000E+00
      1.06143998243339E-10   5.76064504486331E-15   1.06149758888384E-10   1.46773929493926E-17   3.10000000000000E-01
      3.10000000000000E-01   0.00000000000000E+00   0.00000000000000E+00   0.00000000000000E+00   0.00000000000000E+00
      0.00000000000000E+00   8.28018285191235E-17
      3.00000000000000E-02
      0.00000000000000E+00   0.00000000000000E+00   0.00000000000000E+00   0.00000000000000E+00  -2.57518500454402E-13
     -9.67396477616364E-11  -9.69971662620908E-11  -1.42257342577098E-17   1.20000000000000E-02   1.20000000000000E-02
      0.00000000000000E+00   0.00000000000000E+00   0.00000000000000E+00   0.00000000000000E+00   0.00000000000000E+00
     -8.16142007262671E-17   3.40000000000000E-01   3.40000000000000E-01   0.00000000000000E+00   0.00000000000000E+00
      9.69914490670037E-11   5.71719508723522E-15   9.69971662620909E-11   1.46129156679736E-17   3.10000000000000E-01
      3.10000000000000E-01   0.00000000000000E+00   0.00000000000000E+00   0.00000000000000E+00   0.00000000000000E+00
      0.00000000000000E+00   8.12270193160034E-17
      4.50000000000000E-02
      0.00000000000000E+00   0.00000000000000E+00   0.00000000000000E+00   0.00000000000000E+00  -2.59564000206369E-13
     -8.84506806909381E-11  -8.87102446911445E-11  -1.42903039805638E-17   1.80000000000000E-02   1.80000000000000E-02
      0.00000000000000E+00   0.00000000000000E+00   0.00000000000000E+00   0.00000000000000E+00   0.00000000000000E+00
     -7.99103288489580E-17   3.40000000000000E-01   3.40000000000000E-01   0.00000000000000E+00   0.00000000000000E+00
      8.87045708988250E-11   5.67379231946653E-15   8.87102446911444E-11   1.45484239372860E-17   3.10000000000000E-01
      3.10000000000000E-01   0.00000000000000E+00   0.00000000000000E+00   0.00000000000000E+00   0.00000000000000E+00
      0.00000000000000E+00   7.96522088922359E-17
      6.00000000000000E-02
      0.00000000000000E+00   0.00000000000000E+00   0.00000000000000E+00   0.00000000000000E+00  -2.61612492546259E-13
     -8.09527608413636E-11  -8.12143733339099E-11  -1.43548572439689E-17   2.40000000000000E-02   2.40000000000000E-02
      0.00000000000000E+00   0.00000000000000E+00   0.00000000000000E+00   0.00000000000000E+00   0.00000000000000E+00
     -7.82064577901648E-17   3.40000000000000E-01   3.40000000000000E-01   0.00000000000000E+00   0.00000000000000E+00
      8.12087428944107E-11   5.63043949910770E-15   8.12143733339098E-11   1.44839173813950E-17   3.10000000000000E-01
      3.10000000000000E-01   0.00000000000000E+00   0.00000000000000E+00   0.00000000000000E+00   0.00000000000000E+00
      0.00000000000000E+00   7.80773976527387E-17
      7.50000000000000E-02
      0.00000000000000E+00   0.00000000000000E+00   0.00000000000000E+00   0.00000000000000E+00  -2.63663936838459E-13
     -7.41767353154418E-11  -7.44403992522803E-11  -1.44193944691755E-17   3.00000000000000E-02   3.00000000000000E-02
      0.00000000000000E+00   0.00000000000000E+00   0.00000000000000E+00   0.00000000000000E+00   0.00000000000000E+00
     -7.65025871455752E-17   3.40000000000000E-01   3.40000000000000E-01   0.00000000000000E+00   0.00000000000000E+00
      7.44348121131527E-11   5.58713912756217E-15   7.44403992522803E-11   1.44193956132176E-17   3.10000000000000E-01
      3.10000000000000E-01   0.00000000000000E+00   0.00000000000000E+00   0.00000000000000E+00   0.00000000000000E+00
      0.00000000000000E+00   7.65025860015331E-17
      9.00000000000000E-02
      0.00000000000000E+00   0.00000000000000E+00   0.00000000000000E+00   0.00000000000000E+00  -2.65718292020309E-13
     -6.80586227807880E-11  -6.83243410728083E-11  -1.44839160648957E-17   3.60000000000000E-02   3.60000000000000E-02
      0.00000000000000E+00   0.00000000000000E+00   0.00000000000000E+00   0.00000000000000E+00   0.00000000000000E+00
     -7.47987165113857E-17   3.40000000000000E-01   3.40000000000000E-01   0.00000000000000E+00   0.00000000000000E+00
      6.83187971793325E-11   5.54389347583646E-15   6.83243410728083E-11   1.43548582341226E-17   3.10000000000000E-01
      3.10000000000000E-01   0.00000000000000E+00   0.00000000000000E+00   0.00000000000000E+00   0.00000000000000E+00
      0.00000000000000E+00   7.49277743421588E-17
      1.05000000000000E-01
      0.00000000000000E+00   0.00000000000000E+00   0.00000000000000E+00   0.00000000000000E+00  -2.67775516702087E-13
     -6.25393266814405E-11  -6.28071021981426E-11  -1.45484224277194E-17   4.20000000000000E-02   4.20000000000000E-02
      0.00000000000000E+00   0.00000000000000E+00   0.00000000000000E+00   0.00000000000000E+00   0.00000000000000E+00
     -7.30948454838856E-17   3.40000000000000E-01   3.40000000000000E-01   0.00000000000000E+00   0.00000000000000E+00
      6.28016014935342E-11   5.50070460828860E-15   6.28071021981424E-11   1.42903048335170E-17   3.10000000000000E-01
      3.10000000000000E-01   0.00000000000000E+00   0.00000000000000E+00   0.00000000000000E+00   0.00000000000000E+00
      0.00000000000000E+00   7.33529630780880E-17
      1.20000000000000E-01
      0.00000000000000E+00   0.00000000000000E+00   0.00000000000000E+00   0.00000000000000E+00  -2.69835569250646E-13
     -5.75643580139243E-11  -5.78341935831750E-11  -1.46129139425162E-17   4.80000000000000E-02   4.80000000000000E-02
      0.00000000000000E+00   0.00000000000000E+00   0.00000000000000E+00   0.00000000000000E+00   0.00000000000000E+00
     -7.13909736590411E-17   3.40000000000000E-01   3.40000000000000E-01   0.00000000000000E+00   0.00000000000000E+00
      5.78287360087672E-11   5.45757440775383E-15   5.78341935831749E-11   1.42257349884178E-17   3.10000000000000E-01
      3.10000000000000E-01   0.00000000000000E+00   0.00000000000000E+00   0.00000000000000E+00   0.00000000000000E+00
      0.00000000000000E+00   7.17781526131395E-17
      1.35000000000000E-01
      0.00000000000000E+00   0.00000000000000E+00   0.00000000000000E+00   0.00000000000000E+00  -2.71898407853890E-13
     -5.30835676958339E-11  -5.33554661036878E-11  -1.46773909828223E-17   5.40000000000000E-02   5.40000000000000E-02
      0.00000000000000E+00   0.00000000000000E+00   0.00000000000000E+00   0.00000000000000E+00   0.00000000000000E+00
     -6.96871006320792E-17   3.40000000000000E-01   3.40000000000000E-01   0.00000000000000E+00   0.00000000000000E+00
      5.33500515990922E-11   5.41450459565618E-15   5.33554661036878E-11   1.41611482630092E-17   3.10000000000000E-01
      3.10000000000000E-01   0.00000000000000E+00   0.00000000000000E+00   0.00000000000000E+00   0.00000000000000E+00
      0.00000000000000E+00   7.02033433518924E-17
      1.50000000000000E-01
      0.00000000000000E+00   0.00000000000000E+00   0.00000000000000E+00   0.00000000000000E+00  -2.73963990570585E-13
     -4.90508885631946E-11  -4.93248525537652E-11  -1.47418539112144E-17   6.00000000000000E-02   6.00000000000000E-02
      0.00000000000000E+00   0.00000000000000E+00   0.00000000000000E+00   0.00000000000000E+00   0.00000000000000E+00
     -6.79832259970711E-17   3.40000000000000E-01   3.40000000000000E-01   0.00000000000000E+00   0.00000000000000E+00
      4.93194810570155E-11   5.37149674975910E-15   4.93248525537653E-11   1.40965442081834E-17   3.10000000000000E-01
      3.10000000000000E-01   0.00000000000000E+00   0.00000000000000E+00   0.00000000000000E+00   0.00000000000000E+00
      0.00000000000000E+00   6.86285357001021E-17
      1.65000000000000E-01
      0.00000000000000E+00   0.00000000000000E+00   0.00000000000000E+00   0.00000000000000E+00  -2.76032275365751E-13
     -4.54240870372276E-11  -4.57001193125933E-11  -1.48063030796691E-17   6.60000000000000E-02   6.60000000000000E-02
      0.00000000000000E+00   0.00000000000000E+00   0.00000000000000E+00   0.00000000000000E+00   0.00000000000000E+00
     -6.62793493465129E-17   3.40000000000000E-01   3.40000000000000E-01   0.00000000000000E+00   0.00000000000000E+00
      4.56947907602667E-11   5.32855232661453E-15   4.57001193125933E-11   1.40319223610655E-17   3.10000000000000E-01
      3.10000000000000E-01   0.00000000000000E+00   0.00000000000000E+00   0.00000000000000E+00   0.00000000000000E+00
      0.00000000000000E+00   6.70537300651166E-17
      1.80000000000000E-01
      0.00000000000000E+00   0.00000000000000E+00   0.00000000000000E+00   0.00000000000000E+00  -2.78103220129944E-13
     -4.21645245020678E-11  -4.24426277221977E-11  -1.48707388299104E-17   7.20000000000000E-02   7.20000000000000E-02
      0.00000000000000E+00   0.00000000000000E+00   0.00000000000000E+00   0.00000000000000E+00   0.00000000000000E+00
     -6.45754702709061E-17   3.40000000000000E-01   3.40000000000000E-01   0.00000000000000E+00   0.00000000000000E+00
      4.24373420495235E-11   5.28567267424209E-15   4.24426277221977E-11   1.39672822445211E-17   3.10000000000000E-01
      3.10000000000000E-01   0.00000000000000E+00   0.00000000000000E+00   0.00000000000000E+00   0.00000000000000E+00
      0.00000000000000E+00   6.54789268562955E-17
      1.95000000000000E-01
      0.00000000000000E+00   0.00000000000000E+00   0.00000000000000E+00   0.00000000000000E+00  -2.80176782688433E-13
     -3.92369284330488E-11  -3.95171052157373E-11  -1.49351614937445E-17   7.80000000000000E-02   7.80000000000000E-02
      0.00000000000000E+00   0.00000000000000E+00   0.00000000000000E+00   0.00000000000000E+00   0.00000000000000E+00
     -6.28715883583335E-17   3.40000000000000E-01   3.40000000000000E-01   0.00000000000000E+00   0.00000000000000E+00
      3.95118623566856E-11   5.24285905168891E-15   3.95171052157373E-11   1.39026233666456E-17   3.10000000000000E-01
      3.10000000000000E-01   0.00000000000000E+00   0.00000000000000E+00   0.00000000000000E+00   0.00000000000000E+00
      0.00000000000000E+00   6.39041264854324E-17
      2.10000000000000E-01
      0.00000000000000E+00   0.00000000000000E+00   0.00000000000000E+00   0.00000000000000E+00  -2.82252920793818E-13
     -3.66091733108379E-11  -3.68914262316317E-11  -1.49995713933826E-17   8.40000000000000E-02   8.40000000000000E-02
      0.00000000000000E+00   0.00000000000000E+00   0.00000000000000E+00   0.00000000000000E+00   0.00000000000000E+00
     -6.11677031940329E-17   3.40000000000000E-01   3.40000000000000E-01   0.00000000000000E+00   0.00000000000000E+00
      3.68862261189878E-11   5.20011264394243E-15   3.68914262316317E-11   1.38379452202362E-17   3.10000000000000E-01
      3.10000000000000E-01   0.00000000000000E+00   0.00000000000000E+00   0.00000000000000E+00   0.00000000000000E+00
      0.00000000000000E+00   6.23293293671794E-17
      2.25000000000000E-01
      0.00000000000000E+00   0.00000000000000E+00   0.00000000000000E+00   0.00000000000000E+00  -2.84331592107781E-13
     -3.42520713503845E-11  -3.45364029424923E-11  -1.50639688417526E-17   9.00000000000000E-02   9.00000000000000E-02
      0.00000000000000E+00   0.00000000000000E+00   0.00000000000000E+00   0.00000000000000E+00   0.00000000000000E+00
     -5.94638143599670E-17   3.40000000000000E-01   3.40000000000000E-01   0.00000000000000E+00   0.00000000000000E+00
      3.45312455079172E-11   5.15743457509154E-15   3.45364029424923E-11   1.37732472822429E-17   3.10000000000000E-01
      3.10000000000000E-01   0.00000000000000E+00   0.00000000000000E+00   0.00000000000000E+00   0.00000000000000E+00
      0.00000000000000E+00   6.07545359194767E-17
      2.40000000000000E-01
      0.00000000000000E+00   0.00000000000000E+00   0.00000000000000E+00   0.00000000000000E+00  -2.86412754168178E-13
     -3.21391730657166E-11  -3.24255858198848E-11  -1.51283541427992E-17   9.60000000000000E-02   9.60000000000000E-02
      0.00000000000000E+00   0.00000000000000E+00   0.00000000000000E+00   0.00000000000000E+00   0.00000000000000E+00
     -5.77599214343877E-17   3.40000000000000E-01   3.40000000000000E-01   0.00000000000000E+00   0.00000000000000E+00
      3.24204709939600E-11   5.11482592477936E-15   3.24255858198847E-11   1.37085290132003E-17   3.10000000000000E-01
      3.10000000000000E-01   0.00000000000000E+00   0.00000000000000E+00   0.00000000000000E+00   0.00000000000000E+00
      0.00000000000000E+00   5.91797465639865E-17
      2.55000000000000E-01
      0.00000000000000E+00   0.00000000000000E+00   0.00000000000000E+00   0.00000000000000E+00  -2.88496364343045E-13
     -3.02465776823462E-11  -3.05350740466893E-11  -1.51927275917742E-17   1.02000000000000E-01   1.02000000000000E-01
      0.00000000000000E+00   0.00000000000000E+00   0.00000000000000E+00   0.00000000000000E+00   0.00000000000000E+00
     -5.60560239913961E-17   3.40000000000000E-01   3.40000000000000E-01   0.00000000000000E+00   0.00000000000000E+00
      3.05300017589486E-11   5.07228774069394E-15   3.05350740466893E-11   1.36437898566384E-17   3.10000000000000E-01
      3.10000000000000E-01   0.00000000000000E+00   0.00000000000000E+00   0.00000000000000E+00   0.00000000000000E+00
      0.00000000000000E+00   5.76049617265320E-17
      2.70000000000000E-01
      0.00000000000000E+00   0.00000000000000E+00   0.00000000000000E+00   0.00000000000000E+00  -2.90582379771290E-13
     -2.85527533987398E-11  -2.88433357785111E-11  -1.52570894755159E-17   1.08000000000000E-01   1.08000000000000E-01
      0.00000000000000E+00   0.00000000000000E+00   0.00000000000000E+00   0.00000000000000E+00   0.00000000000000E+00
     -5.43521216004969E-17   3.40000000000000E-01   3.40000000000000E-01   0.00000000000000E+00   0.00000000000000E+00
      2.88383059574599E-11   5.02982105118842E-15   2.88433357785110E-11   1.35790292384705E-17   3.10000000000000E-01
      3.10000000000000E-01   0.00000000000000E+00   0.00000000000000E+00   0.00000000000000E+00   0.00000000000000E+00
      0.00000000000000E+00   5.60301818375423E-17
      2.85000000000000E-01
      0.00000000000000E+00   0.00000000000000E+00   0.00000000000000E+00   0.00000000000000E+00  -2.92670757285815E-13
     -2.70383674872119E-11  -2.73310382444978E-11  -1.53214400727191E-17   1.14000000000000E-01   1.14000000000000E-01
      0.00000000000000E+00   0.00000000000000E+00   0.00000000000000E+00   0.00000000000000E+00   0.00000000000000E+00
     -5.26482138261449E-17   3.40000000000000E-01   3.40000000000000E-01   0.00000000000000E+00   0.00000000000000E+00
      2.73260508176199E-11   4.98742687783708E-15   2.73310382444977E-11   1.35142465663598E-17   3.10000000000000E-01
      3.10000000000000E-01   0.00000000000000E+00   0.00000000000000E+00   0.00000000000000E+00   0.00000000000000E+00
      0.00000000000000E+00   5.44554073325042E-17
      3.00000000000000E-01
      0.00000000000000E+00   0.00000000000000E+00   0.00000000000000E+00   0.00000000000000E+00  -2.94761453323462E-13
     -2.56861262129183E-11  -2.59808876662418E-11  -1.53857796541951E-17   1.20000000000000E-01   1.20000000000000E-01
      0.00000000000000E+00   0.00000000000000E+00   0.00000000000000E+00   0.00000000000000E+00   0.00000000000000E+00
     -5.09443002272862E-17   3.40000000000000E-01   3.40000000000000E-01   0.00000000000000E+00   0.00000000000000E+00
      2.59759425599950E-11   4.94510624677595E-15   2.59808876662418E-11   1.34494412290606E-17   3.10000000000000E-01
      3.10000000000000E-01   0.00000000000000E+00   0.00000000000000E+00   0.00000000000000E+00   0.00000000000000E+00
      0.00000000000000E+00   5.28806386524208E-17
      3.15000000000000E-01
      0.00000000000000E+00   0.00000000000000E+00   0.00000000000000E+00   0.00000000000000E+00  -2.96854423815755E-13
     -2.44806245376118E-11  -2.47774789614276E-11  -1.54501084831237E-17   1.26000000000000E-01   1.26000000000000E-01
      0.00000000000000E+00   0.00000000000000E+00   0.00000000000000E+00   0.00000000000000E+00   0.00000000000000E+00
     -4.92403803568901E-17   3.40000000000000E-01   3.40000000000000E-01   0.00000000000000E+00   0.00000000000000E+00
      2.47725761012279E-11   4.90286019964664E-15   2.47774789614276E-11   1.33846125957356E-17   3.10000000000000E-01
      3.10000000000000E-01   0.00000000000000E+00   0.00000000000000E+00   0.00000000000000E+00   0.00000000000000E+00
      0.00000000000000E+00   5.13058762442781E-17
      3.30000000000000E-01
      0.00000000000000E+00   0.00000000000000E+00   0.00000000000000E+00   0.00000000000000E+00  -2.98949624061646E-13
     -2.34082055626453E-11  -2.37071551867070E-11  -1.55144268152948E-17   1.32000000000000E-01   1.32000000000000E-01
      0.00000000000000E+00   0.00000000000000E+00   0.00000000000000E+00   0.00000000000000E+00   0.00000000000000E+00
     -4.75364537614731E-17   3.40000000000000E-01   3.40000000000000E-01   0.00000000000000E+00   0.00000000000000E+00
      2.37022944969037E-11   4.86068980326431E-15   2.37071551867069E-11   1.33197600152475E-17   3.10000000000000E-01
      3.10000000000000E-01   0.00000000000000E+00   0.00000000000000E+00   0.00000000000000E+00   0.00000000000000E+00
      0.00000000000000E+00   4.97311205615204E-17
      3.45000000000000E-01
      0.00000000000000E+00   0.00000000000000E+00   0.00000000000000E+00   0.00000000000000E+00  -3.01047008578715E-13
     -2.24568296535755E-11  -2.27578766621542E-11  -1.55787348993434E-17   1.38000000000000E-01   1.38000000000000E-01
      0.00000000000000E+00   0.00000000000000E+00   0.00000000000000E+00   0.00000000000000E+00   0.00000000000000E+00
     -4.58325199806139E-17   3.40000000000000E-01   3.40000000000000E-01   0.00000000000000E+00   0.00000000000000E+00
      2.27530580659954E-11   4.81859615882286E-15   2.27578766621542E-11   1.32548828154229E-17   3.10000000000000E-01
      3.10000000000000E-01   0.00000000000000E+00   0.00000000000000E+00   0.00000000000000E+00   0.00000000000000E+00
      0.00000000000000E+00   4.81563720645344E-17
      3.60000000000000E-01
      0.00000000000000E+00   0.00000000000000E+00   0.00000000000000E+00   0.00000000000000E+00  -3.03146530932410E-13
     -2.16159531767941E-11  -2.19190997077266E-11  -1.56430329769747E-17   1.44000000000000E-01   1.44000000000000E-01
      0.00000000000000E+00   0.00000000000000E+00   0.00000000000000E+00   0.00000000000000E+00   0.00000000000000E+00
     -4.41285785464579E-17   3.40000000000000E-01   3.40000000000000E-01   0.00000000000000E+00   0.00000000000000E+00
      2.19143231273165E-11   4.77658041009836E-15   2.19190997077266E-11   1.31899803022887E-17   3.10000000000000E-01
      3.10000000000000E-01   0.00000000000000E+00   0.00000000000000E+00   0.00000000000000E+00   0.00000000000000E+00
      0.00000000000000E+00   4.65816312211439E-17
      3.75000000000000E-01
      0.00000000000000E+00   0.00000000000000E+00   0.00000000000000E+00   0.00000000000000E+00  -3.05248143539228E-13
     -2.08764167670840E-11  -2.11816649106233E-11  -1.57073212831829E-17   1.50000000000000E-01   1.50000000000000E-01
      0.00000000000000E+00   0.00000000000000E+00   0.00000000000000E+00   0.00000000000000E+00   0.00000000000000E+00
     -4.24246289832112E-17   3.40000000000000E-01   3.40000000000000E-01   0.00000000000000E+00   0.00000000000000E+00
      2.11769302668727E-11   4.73464375056120E-15   2.11816649106233E-11   1.31250517592792E-17   3.10000000000000E-01
      3.10000000000000E-01   0.00000000000000E+00   0.00000000000000E+00   0.00000000000000E+00   0.00000000000000E+00
      0.00000000000000E+00   4.50068985071149E-17
      3.90000000000000E-01
      0.00000000000000E+00   0.00000000000000E+00   0.00000000000000E+00   0.00000000000000E+00  -3.07351797441844E-13
     -2.02303430339859E-11  -2.05376948314277E-11  -1.57716000464614E-17   1.56000000000000E-01   1.56000000000000E-01
      0.00000000000000E+00   0.00000000000000E+00   0.00000000000000E+00   0.00000000000000E+00   0.00000000000000E+00
     -4.07206708066234E-17   3.40000000000000E-01   3.40000000000000E-01   0.00000000000000E+00   0.00000000000000E+00
      2.05330020439979E-11   4.69278742986793E-15   2.05376948314277E-11   1.30600964464129E-17   3.10000000000000E-01
      3.10000000000000E-01   0.00000000000000E+00   0.00000000000000E+00   0.00000000000000E+00   0.00000000000000E+00
      0.00000000000000E+00   4.34321744066718E-17
      4.05000000000000E-01
      0.00000000000000E+00   0.00000000000000E+00   0.00000000000000E+00   0.00000000000000E+00  -3.09457442053234E-13
     -1.96710436045487E-11  -1.99805010466019E-11  -1.58358694890060E-17   1.62000000000000E-01   1.62000000000000E-01
      0.00000000000000E+00   0.00000000000000E+00   0.00000000000000E+00   0.00000000000000E+00   0.00000000000000E+00
     -3.90167035234580E-17   3.40000000000000E-01   3.40000000000000E-01   0.00000000000000E+00   0.00000000000000E+00
      1.99758500338434E-11   4.65101275848139E-15   1.99805010466019E-11   1.29951135994369E-17   3.10000000000000E-01
      3.10000000000000E-01   0.00000000000000E+00   0.00000000000000E+00   0.00000000000000E+00   0.00000000000000E+00
      0.00000000000000E+00   4.18574594130271E-17
      4.20000000000000E-01
      0.00000000000000E+00   0.00000000000000E+00   0.00000000000000E+00   0.00000000000000E+00  -3.11565024865360E-13
     -1.91929353905194E-11  -1.95045004153848E-11  -1.59001298269116E-17   1.68000000000000E-01   1.68000000000000E-01
      0.00000000000000E+00   0.00000000000000E+00   0.00000000000000E+00   0.00000000000000E+00   0.00000000000000E+00
     -3.73127266309493E-17   3.40000000000000E-01   3.40000000000000E-01   0.00000000000000E+00   0.00000000000000E+00
      1.94998910942724E-11   4.60932111232758E-15   1.95045004153848E-11   1.29301024289389E-17   3.10000000000000E-01
      3.10000000000000E-01   0.00000000000000E+00   0.00000000000000E+00   0.00000000000000E+00   0.00000000000000E+00
      0.00000000000000E+00   4.02827540289220E-17
      4.35000000000000E-01
      0.00000000000000E+00   0.00000000000000E+00   0.00000000000000E+00   0.00000000000000E+00  -3.13674491119000E-13
     -1.87914659594439E-11  -1.91051404505629E-11  -1.59643812703618E-17   1.74000000000000E-01   1.74000000000000E-01
      0.00000000000000E+00   0.00000000000000E+00   0.00000000000000E+00   0.00000000000000E+00   0.00000000000000E+00
     -3.56087396162462E-17   3.40000000000000E-01   3.40000000000000E-01   0.00000000000000E+00   0.00000000000000E+00
      1.91005727366274E-11   4.56771393548607E-15   1.91051404505629E-11   1.28650621194245E-17   3.10000000000000E-01
      3.10000000000000E-01   0.00000000000000E+00   0.00000000000000E+00   0.00000000000000E+00   0.00000000000000E+00
      0.00000000000000E+00   3.87080587671836E-17
      4.50000000000000E-01
      0.00000000000000E+00   0.00000000000000E+00   0.00000000000000E+00   0.00000000000000E+00  -3.15785783430423E-13
     -1.84630478815936E-11  -1.87788336650240E-11  -1.60286240238115E-17   1.80000000000000E-01   1.80000000000000E-01
      0.00000000000000E+00   0.00000000000000E+00   0.00000000000000E+00   0.00000000000000E+00   0.00000000000000E+00
     -3.39047419558409E-17   3.40000000000000E-01   3.40000000000000E-01   0.00000000000000E+00   0.00000000000000E+00
      1.87743074722817E-11   4.52619274229112E-15   1.87788336650240E-11   1.27999918283583E-17   3.10000000000000E-01
      3.10000000000000E-01   0.00000000000000E+00   0.00000000000000E+00   0.00000000000000E+00   0.00000000000000E+00
      0.00000000000000E+00   3.71333741512940E-17
      4.65000000000000E-01
      0.00000000000000E+00   0.00000000000000E+00   0.00000000000000E+00   0.00000000000000E+00  -3.17898841367909E-13
     -1.82050019181968E-11  -1.85229007595647E-11  -1.60928582861641E-17   1.86000000000000E-01   1.86000000000000E-01
      0.00000000000000E+00   0.00000000000000E+00   0.00000000000000E+00   0.00000000000000E+00   0.00000000000000E+00
     -3.22007331149813E-17   3.40000000000000E-01   3.40000000000000E-01   0.00000000000000E+00   0.00000000000000E+00
      1.85184160004468E-11   4.48475911790577E-15   1.85229007595647E-11   1.27348906851681E-17   3.10000000000000E-01
      3.10000000000000E-01   0.00000000000000E+00   0.00000000000000E+00   0.00000000000000E+00   0.00000000000000E+00
      0.00000000000000E+00   3.55587007159773E-17
      4.80000000000000E-01
      0.00000000000000E+00   0.00000000000000E+00   0.00000000000000E+00   0.00000000000000E+00  -3.20013600976749E-13
     -1.80155089111954E-11  -1.83355225121721E-11  -1.61570842509425E-17   1.92000000000000E-01   1.92000000000000E-01
      0.00000000000000E+00   0.00000000000000E+00   0.00000000000000E+00   0.00000000000000E+00   0.00000000000000E+00
     -3.04967125470682E-17   3.40000000000000E-01   3.40000000000000E-01   0.00000000000000E+00   0.00000000000000E+00
      1.83310790974535E-11   4.44341471859460E-15   1.83355225121721E-11   1.26697577902092E-17   3.10000000000000E-01
      3.10000000000000E-01   0.00000000000000E+00   0.00000000000000E+00   0.00000000000000E+00   0.00000000000000E+00
      0.00000000000000E+00   3.39840390078015E-17
      4.95000000000000E-01
      0.00000000000000E+00   0.00000000000000E+00   0.00000000000000E+00   0.00000000000000E+00  -3.22129994240599E-13
     -1.78935702307454E-11  -1.82157002249860E-11  -1.62213021064539E-17   1.98000000000000E-01   1.98000000000000E-01
      0.00000000000000E+00   0.00000000000000E+00   0.00000000000000E+00   0.00000000000000E+00   0.00000000000000E+00
     -2.87926796930337E-17   3.40000000000000E-01   3.40000000000000E-01   0.00000000000000E+00   0.00000000000000E+00
      1.82112980637158E-11   4.40216127022615E-15   1.82157002249860E-11   1.26045922136886E-17   3.10000000000000E-01
      3.10000000000000E-01   0.00000000000000E+00   0.00000000000000E+00   0.00000000000000E+00   0.00000000000000E+00
      0.00000000000000E+00   3.24093895857990E-17
      5.10000000000000E-01
      0.00000000000000E+00   0.00000000000000E+00   0.00000000000000E+00   0.00000000000000E+00  -3.24247948477330E-13
     -1.78389766339437E-11  -1.81632245824211E-11  -1.62855120359489E-17   2.04000000000000E-01   2.04000000000000E-01
      0.00000000000000E+00   0.00000000000000E+00   0.00000000000000E+00   0.00000000000000E+00   0.00000000000000E+00
     -2.70886339807019E-17   3.40000000000000E-01   3.40000000000000E-01   0.00000000000000E+00   0.00000000000000E+00
      1.81588635818547E-11   4.36100056640200E-15   1.81632245824211E-11   1.25393929945466E-17   3.10000000000000E-01
      3.10000000000000E-01   0.00000000000000E+00   0.00000000000000E+00   0.00000000000000E+00   0.00000000000000E+00
      0.00000000000000E+00   3.08347530221042E-17
      5.25000000000000E-01
      0.00000000000000E+00   0.00000000000000E+00   0.00000000000000E+00   0.00000000000000E+00  -3.26367385660002E-13
     -1.78522853868352E-11  -1.81786527724952E-11  -1.63497142177763E-17   2.10000000000000E-01   2.10000000000000E-01
      0.00000000000000E+00   0.00000000000000E+00   0.00000000000000E+00   0.00000000000000E+00   0.00000000000000E+00
     -2.53845748241292E-17   3.40000000000000E-01   3.40000000000000E-01   0.00000000000000E+00   0.00000000000000E+00
      1.81743328380295E-11   4.31993446571914E-15   1.81786527724952E-11   1.24741591392934E-17   3.10000000000000E-01
      3.10000000000000E-01   0.00000000000000E+00   0.00000000000000E+00   0.00000000000000E+00   0.00000000000000E+00
      0.00000000000000E+00   2.92601299026120E-17
      5.40000000000000E-01
      0.00000000000000E+00   0.00000000000000E+00   0.00000000000000E+00   0.00000000000000E+00  -3.28488221652724E-13
     -1.79348055016121E-11  -1.82632937232649E-11  -1.64139088255313E-17   2.16000000000000E-01   2.16000000000000E-01
      0.00000000000000E+00   0.00000000000000E+00   0.00000000000000E+00   0.00000000000000E+00   0.00000000000000E+00
     -2.36805016229253E-17   3.40000000000000E-01   3.40000000000000E-01   0.00000000000000E+00   0.00000000000000E+00
      1.82590147583769E-11   4.27896488794581E-15   1.82632937232648E-11   1.24088896208007E-17   3.10000000000000E-01
      3.10000000000000E-01   0.00000000000000E+00   0.00000000000000E+00   0.00000000000000E+00   0.00000000000000E+00
      0.00000000000000E+00   2.76855208276559E-17
      5.55000000000000E-01
      0.00000000000000E+00   0.00000000000000E+00   0.00000000000000E+00   0.00000000000000E+00  -3.30610365356491E-13