DF-ISE text

Info {
  version   = 1.0
  type      = xyplot
  datasets  = [
    "time"
    "source OuterVoltage" "source InnerVoltage" "source QuasiFermiPotential" "source DisplacementCurrent" "source eCurrent"
    "source hCurrent" "source TotalCurrent" "source Charge" "topGate OuterVoltage" "topGate InnerVoltage"
    "topGate QuasiFermiPotential" "topGate DisplacementCurrent" "topGate eCurrent" "topGate hCurrent" "topGate TotalCurrent"
    "topGate Charge" "drain OuterVoltage" "drain InnerVoltage" "drain QuasiFermiPotential" "drain DisplacementCurrent"
    "drain eCurrent" "drain hCurrent" "drain TotalCurrent" "drain Charge" "bottomGate OuterVoltage"
    "bottomGate InnerVoltage" "bottomGate QuasiFermiPotential" "bottomGate DisplacementCurrent" "bottomGate eCurrent" "bottomGate hCurrent"
    "bottomGate TotalCurrent" "bottomGate Charge" ]
  functions = [
    Time
    OuterVoltage InnerVoltage QuasiFermiPotential DisplacementCurrent eCurrent
    hCurrent TotalCurrent Charge OuterVoltage InnerVoltage
    QuasiFermiPotential DisplacementCurrent eCurrent hCurrent TotalCurrent
    Charge OuterVoltage InnerVoltage QuasiFermiPotential DisplacementCurrent
    eCurrent hCurrent TotalCurrent Charge OuterVoltage
    InnerVoltage QuasiFermiPotential DisplacementCurrent eCurrent hCurrent
    TotalCurrent Charge ]
}

Data {
      1.50000000000000E-02
      0.00000000000000E+00   0.00000000000000E+00   0.00000000000000E+00   0.00000000000000E+00  -1.11262991811053E-13
     -3.92814438512294E-10  -3.92925701504105E-10  -8.96896396616358E-18   6.00000000000000E-03   6.00000000000000E-03
      0.00000000000000E+00   0.00000000000000E+00   0.00000000000000E+00   0.00000000000000E+00   0.00000000000000E+00
     -2.03341033388052E-17   3.60000000000000E-01   3.60000000000000E-01   0.00000000000000E+00   0.00000000000000E+00
      3.92944807303214E-10  -1.91057991094193E-14   3.92925701504105E-10   2.01290193124712E-17   3.40000000000000E-01
      3.40000000000000E-01   0.00000000000000E+00   0.00000000000000E+00   0.00000000000000E+00   0.00000000000000E+00
      0.00000000000000E+00   9.17404799249757E-18
      3.00000000000000E-02
      0.00000000000000E+00   0.00000000000000E+00   0.00000000000000E+00   0.00000000000000E+00  -1.12813279541847E-13
     -3.69085960055552E-10  -3.69198773335094E-10  -9.03884702327793E-18   1.20000000000000E-02   1.20000000000000E-02
      0.00000000000000E+00   0.00000000000000E+00   0.00000000000000E+00   0.00000000000000E+00   0.00000000000000E+00
     -1.86278160104933E-17   3.60000000000000E-01   3.60000000000000E-01   0.00000000000000E+00   0.00000000000000E+00
      3.69215230067517E-10  -1.64567324229075E-14   3.69198773335094E-10   2.00650121855865E-17   3.40000000000000E-01
      3.40000000000000E-01   0.00000000000000E+00   0.00000000000000E+00   0.00000000000000E+00   0.00000000000000E+00
      0.00000000000000E+00   7.60165084818464E-18
      4.50000000000000E-02
      0.00000000000000E+00   0.00000000000000E+00   0.00000000000000E+00   0.00000000000000E+00  -1.14373894637272E-13
     -3.47033322471431E-10  -3.47147696366069E-10  -9.10854682620848E-18   1.80000000000000E-02   1.80000000000000E-02
      0.00000000000000E+00   0.00000000000000E+00   0.00000000000000E+00   0.00000000000000E+00   0.00000000000000E+00
     -1.69216226823389E-17   3.60000000000000E-01   3.60000000000000E-01   0.00000000000000E+00   0.00000000000000E+00
      3.47161739762278E-10  -1.40433962089240E-14   3.47147696366069E-10   2.00010094659394E-17   3.40000000000000E-01
      3.40000000000000E-01   0.00000000000000E+00   0.00000000000000E+00   0.00000000000000E+00   0.00000000000000E+00
      0.00000000000000E+00   6.02916004260798E-18
      6.00000000000000E-02
      0.00000000000000E+00   0.00000000000000E+00   0.00000000000000E+00   0.00000000000000E+00  -1.15944728908073E-13
     -3.26549768818741E-10  -3.26665713547649E-10  -9.17806948010342E-18   2.40000000000000E-02   2.40000000000000E-02
      0.00000000000000E+00   0.00000000000000E+00   0.00000000000000E+00   0.00000000000000E+00   0.00000000000000E+00
     -1.52155198903174E-17   3.60000000000000E-01   3.60000000000000E-01   0.00000000000000E+00   0.00000000000000E+00
      3.26677560446925E-10  -1.18468992763710E-14   3.26665713547648E-10   1.99370103779549E-17   3.40000000000000E-01
      3.40000000000000E-01   0.00000000000000E+00   0.00000000000000E+00   0.00000000000000E+00   0.00000000000000E+00
      0.00000000000000E+00   4.45657899246591E-18
      7.50000000000000E-02
      0.00000000000000E+00   0.00000000000000E+00   0.00000000000000E+00   0.00000000000000E+00  -1.17525672038476E-13
     -3.07534670644342E-10  -3.07652196316380E-10  -9.24742087988732E-18   3.00000000000000E-02   3.00000000000000E-02
      0.00000000000000E+00   0.00000000000000E+00   0.00000000000000E+00   0.00000000000000E+00   0.00000000000000E+00
     -1.35095043184937E-17   3.60000000000000E-01   3.60000000000000E-01   0.00000000000000E+00   0.00000000000000E+00
      3.07662046020934E-10  -9.84970455338330E-15   3.07652196316380E-10   1.98730142257315E-17   3.40000000000000E-01
      3.40000000000000E-01   0.00000000000000E+00   0.00000000000000E+00   0.00000000000000E+00   0.00000000000000E+00
      0.00000000000000E+00   2.88391097264958E-18
      9.00000000000000E-02
      0.00000000000000E+00   0.00000000000000E+00   0.00000000000000E+00   0.00000000000000E+00  -1.19116611849920E-13
     -2.89893260446378E-10  -2.90012377058228E-10  -9.31660671715025E-18   3.60000000000000E-02   3.60000000000000E-02
      0.00000000000000E+00   0.00000000000000E+00   0.00000000000000E+00   0.00000000000000E+00   0.00000000000000E+00
     -1.18035727906644E-17   3.60000000000000E-01   3.60000000000000E-01   0.00000000000000E+00   0.00000000000000E+00
      2.90020412607271E-10  -8.03554904314729E-15   2.90012377058228E-10   1.98090203840249E-17   3.40000000000000E-01
      3.40000000000000E-01   0.00000000000000E+00   0.00000000000000E+00   0.00000000000000E+00   0.00000000000000E+00
      0.00000000000000E+00   1.31115912378972E-18
      1.05000000000000E-01
      0.00000000000000E+00   0.00000000000000E+00   0.00000000000000E+00   0.00000000000000E+00  -1.20717434544527E-13
     -2.73536370218402E-10  -2.73657087652947E-10  -9.38563248685858E-18   4.20000000000000E-02   4.20000000000000E-02
      0.00000000000000E+00   0.00000000000000E+00   0.00000000000000E+00   0.00000000000000E+00   0.00000000000000E+00
     -1.00977222626477E-17   3.60000000000000E-01   3.60000000000000E-01   0.00000000000000E+00   0.00000000000000E+00
      2.73663477010618E-10  -6.38935767142217E-15   2.73657087652947E-10   1.97450282902482E-17   3.40000000000000E-01
      3.40000000000000E-01   0.00000000000000E+00   0.00000000000000E+00   0.00000000000000E+00   0.00000000000000E+00
      0.00000000000000E+00  -2.61673540741902E-19
      1.20000000000000E-01
      0.00000000000000E+00   0.00000000000000E+00   0.00000000000000E+00   0.00000000000000E+00  -1.22328024930080E-13
     -2.58380176230662E-10  -2.58502504255593E-10  -9.45450349388706E-18   4.80000000000000E-02   4.80000000000000E-02
      0.00000000000000E+00   0.00000000000000E+00   0.00000000000000E+00   0.00000000000000E+00   0.00000000000000E+00
     -8.39194981515817E-18   3.60000000000000E-01   3.60000000000000E-01   0.00000000000000E+00   0.00000000000000E+00
      2.58507401429004E-10  -4.89717341183577E-15   2.58502504255592E-10   1.96810374373699E-17   3.40000000000000E-01
      3.40000000000000E-01   0.00000000000000E+00   0.00000000000000E+00   0.00000000000000E+00   0.00000000000000E+00
      0.00000000000000E+00  -1.83458412832472E-18
      1.35000000000000E-01
      0.00000000000000E+00   0.00000000000000E+00   0.00000000000000E+00   0.00000000000000E+00  -1.23948266628078E-13
     -2.44345950236182E-10  -2.44469898502810E-10  -9.52322485937326E-18   5.40000000000000E-02   5.40000000000000E-02
      0.00000000000000E+00   0.00000000000000E+00   0.00000000000000E+00   0.00000000000000E+00   0.00000000000000E+00
     -6.68625264720707E-18   3.60000000000000E-01   3.60000000000000E-01   0.00000000000000E+00   0.00000000000000E+00
      2.44473444586886E-10  -3.54608407565960E-15   2.44469898502810E-10   1.96170473676097E-17   3.40000000000000E-01
      3.40000000000000E-01   0.00000000000000E+00   0.00000000000000E+00   0.00000000000000E+00   0.00000000000000E+00
      0.00000000000000E+00  -3.40756986102936E-18
      1.50000000000000E-01
      0.00000000000000E+00   0.00000000000000E+00   0.00000000000000E+00   0.00000000000000E+00  -1.25578042266268E-13
     -2.31359817253047E-10  -2.31485395295313E-10  -9.59180152689516E-18   6.00000000000000E-02   6.00000000000000E-02
      0.00000000000000E+00   0.00000000000000E+00   0.00000000000000E+00   0.00000000000000E+00   0.00000000000000E+00
     -4.98062806997882E-18   3.60000000000000E-01   3.60000000000000E-01   0.00000000000000E+00   0.00000000000000E+00
      2.31487719446607E-10  -2.32415129390051E-15   2.31485395295313E-10   1.95530576668384E-17   3.40000000000000E-01
      3.40000000000000E-01   0.00000000000000E+00   0.00000000000000E+00   0.00000000000000E+00   0.00000000000000E+00
      0.00000000000000E+00  -4.98062806996442E-18
      1.65000000000000E-01
      0.00000000000000E+00   0.00000000000000E+00   0.00000000000000E+00   0.00000000000000E+00  -1.27217233656866E-13
     -2.19352520059684E-10  -2.19479737293341E-10  -9.66023826847347E-18   6.60000000000000E-02   6.60000000000000E-02
      0.00000000000000E+00   0.00000000000000E+00   0.00000000000000E+00   0.00000000000000E+00   0.00000000000000E+00
     -3.27507350113745E-18   3.60000000000000E-01   3.60000000000000E-01   0.00000000000000E+00   0.00000000000000E+00
      2.19480957643572E-10  -1.22035023012223E-15   2.19479737293341E-10   1.94890679596041E-17   3.40000000000000E-01
      3.40000000000000E-01   0.00000000000000E+00   0.00000000000000E+00   0.00000000000000E+00   0.00000000000000E+00
      0.00000000000000E+00  -6.55375618999321E-18
      1.80000000000000E-01
      0.00000000000000E+00   0.00000000000000E+00   0.00000000000000E+00   0.00000000000000E+00  -1.28865721961594E-13
     -2.08259190552811E-10  -2.08388056274772E-10  -9.72853969040053E-18   7.20000000000000E-02   7.20000000000000E-02
      0.00000000000000E+00   0.00000000000000E+00   0.00000000000000E+00   0.00000000000000E+00   0.00000000000000E+00
     -1.56958645952301E-18   3.60000000000000E-01   3.60000000000000E-01   0.00000000000000E+00   0.00000000000000E+00
      2.08388280778627E-10  -2.24503854558627E-16   2.08388056274773E-10   1.94250779047115E-17   3.40000000000000E-01
      3.40000000000000E-01   0.00000000000000E+00   0.00000000000000E+00   0.00000000000000E+00   0.00000000000000E+00
      0.00000000000000E+00  -8.12695175478801E-18
      1.95000000000000E-01
      0.00000000000000E+00   0.00000000000000E+00   0.00000000000000E+00   0.00000000000000E+00  -1.30523387844561E-13
     -1.98019128070694E-10  -1.98149651458539E-10  -9.79671023889802E-18   7.80000000000000E-02   7.80000000000000E-02
      0.00000000000000E+00   0.00000000000000E+00   0.00000000000000E+00   0.00000000000000E+00   0.00000000000000E+00
      1.35835439797994E-19   3.60000000000000E-01   3.60000000000000E-01   0.00000000000000E+00   0.00000000000000E+00
      1.98148978689089E-10   6.72769450321158E-16   1.98149651458539E-10   1.93610871912923E-17   3.40000000000000E-01
      3.40000000000000E-01   0.00000000000000E+00   0.00000000000000E+00   0.00000000000000E+00   0.00000000000000E+00
      0.00000000000000E+00  -9.70021239219225E-18
      2.10000000000000E-01
      0.00000000000000E+00   0.00000000000000E+00   0.00000000000000E+00   0.00000000000000E+00  -1.32190111613917E-13
     -1.88575584809251E-10  -1.88707774920865E-10  -9.86475420560597E-18   8.40000000000000E-02   8.40000000000000E-02
      0.00000000000000E+00   0.00000000000000E+00   0.00000000000000E+00   0.00000000000000E+00   0.00000000000000E+00
      1.84119449016022E-18   3.60000000000000E-01   3.60000000000000E-01   0.00000000000000E+00   0.00000000000000E+00
      1.88706294807716E-10   1.48011314924593E-15   1.88707774920865E-10   1.92970955353105E-17   3.40000000000000E-01
      3.40000000000000E-01   0.00000000000000E+00   0.00000000000000E+00   0.00000000000000E+00   0.00000000000000E+00
      0.00000000000000E+00  -1.12735358198648E-17
      2.25000000000000E-01
      0.00000000000000E+00   0.00000000000000E+00   0.00000000000000E+00   0.00000000000000E+00  -1.33865773353169E-13
     -1.79875558417553E-10  -1.80009424190906E-10  -9.93267573290573E-18   9.00000000000000E-02   9.00000000000000E-02
      0.00000000000000E+00   0.00000000000000E+00   0.00000000000000E+00   0.00000000000000E+00   0.00000000000000E+00
      3.54649289763378E-18   3.60000000000000E-01   3.60000000000000E-01   0.00000000000000E+00   0.00000000000000E+00
      1.80007218706953E-10   2.20548395369860E-15   1.80009424190906E-10   1.92331026764541E-17   3.40000000000000E-01
      3.40000000000000E-01   0.00000000000000E+00   0.00000000000000E+00   0.00000000000000E+00   0.00000000000000E+00
      0.00000000000000E+00  -1.28469198411822E-17
      2.40000000000000E-01
      0.00000000000000E+00   0.00000000000000E+00   0.00000000000000E+00   0.00000000000000E+00  -1.35550253043015E-13
     -1.71869591859351E-10  -1.72005142112394E-10  -1.00004788190797E-17   9.60000000000000E-02   9.60000000000000E-02
      0.00000000000000E+00   0.00000000000000E+00   0.00000000000000E+00   0.00000000000000E+00   0.00000000000000E+00
      5.25173278509056E-18   3.60000000000000E-01   3.60000000000000E-01   0.00000000000000E+00   0.00000000000000E+00
      1.72002285913910E-10   2.85619848364138E-15   1.72005142112394E-10   1.91691083753680E-17   3.40000000000000E-01
      3.40000000000000E-01   0.00000000000000E+00   0.00000000000000E+00   0.00000000000000E+00   0.00000000000000E+00
      0.00000000000000E+00  -1.44203623413789E-17
      2.55000000000000E-01
      0.00000000000000E+00   0.00000000000000E+00   0.00000000000000E+00   0.00000000000000E+00  -1.37243430674497E-13
     -1.64511580619077E-10  -1.64648824049751E-10  -1.00681673233110E-17   1.02000000000000E-01   1.02000000000000E-01
      0.00000000000000E+00   0.00000000000000E+00   0.00000000000000E+00   0.00000000000000E+00   0.00000000000000E+00
      6.95691619602567E-18   3.60000000000000E-01   3.60000000000000E-01   0.00000000000000E+00   0.00000000000000E+00
      1.64645385070138E-10   3.43897961359953E-15   1.64648824049751E-10   1.91051124111903E-17   3.40000000000000E-01
      3.40000000000000E-01   0.00000000000000E+00   0.00000000000000E+00   0.00000000000000E+00   0.00000000000000E+00
      0.00000000000000E+00  -1.59938612839050E-17
      2.70000000000000E-01
      0.00000000000000E+00   0.00000000000000E+00   0.00000000000000E+00   0.00000000000000E+00  -1.38945186354248E-13
     -1.57758587311333E-10  -1.57897532497687E-10  -1.01357449705263E-17   1.08000000000000E-01   1.08000000000000E-01
      0.00000000000000E+00   0.00000000000000E+00   0.00000000000000E+00   0.00000000000000E+00   0.00000000000000E+00
      8.66204509815419E-18   3.60000000000000E-01   3.60000000000000E-01   0.00000000000000E+00   0.00000000000000E+00
      1.57893572499210E-10   3.95999847682104E-15   1.57897532497687E-10   1.90411145793579E-17   3.40000000000000E-01
      3.40000000000000E-01   0.00000000000000E+00   0.00000000000000E+00   0.00000000000000E+00   0.00000000000000E+00
      0.00000000000000E+00  -1.75674147069858E-17
      2.85000000000000E-01
      0.00000000000000E+00   0.00000000000000E+00   0.00000000000000E+00   0.00000000000000E+00  -1.40655400402628E-13
     -1.51570663749752E-10  -1.51711319150155E-10  -1.02032153560845E-17   1.14000000000000E-01   1.14000000000000E-01
      0.00000000000000E+00   0.00000000000000E+00   0.00000000000000E+00   0.00000000000000E+00   0.00000000000000E+00
      1.03671213868018E-17   3.60000000000000E-01   3.60000000000000E-01   0.00000000000000E+00   0.00000000000000E+00
      1.51706894234791E-10   4.42491536403055E-15   1.51711319150155E-10   1.89771146896502E-17   3.40000000000000E-01
      3.40000000000000E-01   0.00000000000000E+00   0.00000000000000E+00   0.00000000000000E+00   0.00000000000000E+00
      0.00000000000000E+00  -1.91410207203675E-17
      3.00000000000000E-01
      0.00000000000000E+00   0.00000000000000E+00   0.00000000000000E+00   0.00000000000000E+00  -1.42373953445444E-13
     -1.45910680515137E-10  -1.46053054468583E-10  -1.02705819503157E-17   1.20000000000000E-01   1.20000000000000E-01
      0.00000000000000E+00   0.00000000000000E+00   0.00000000000000E+00   0.00000000000000E+00   0.00000000000000E+00
      1.20721468881053E-17   3.60000000000000E-01   3.60000000000000E-01   0.00000000000000E+00   0.00000000000000E+00
      1.46048215552091E-10   4.83891649198032E-15   1.46053054468583E-10   1.89131125644443E-17   3.40000000000000E-01
      3.40000000000000E-01   0.00000000000000E+00   0.00000000000000E+00   0.00000000000000E+00   0.00000000000000E+00
      0.00000000000000E+00  -2.07146775022339E-17
      3.15000000000000E-01
      0.00000000000000E+00   0.00000000000000E+00   0.00000000000000E+00   0.00000000000000E+00  -1.44100726499992E-13
     -1.40744164059952E-10  -1.40888264786452E-10  -1.03378481029133E-17   1.26000000000000E-01   1.26000000000000E-01
      0.00000000000000E+00   0.00000000000000E+00   0.00000000000000E+00   0.00000000000000E+00   0.00000000000000E+00
      1.37771233620389E-17   3.60000000000000E-01   3.60000000000000E-01   0.00000000000000E+00   0.00000000000000E+00
      1.40883058036733E-10   5.20674971904944E-15   1.40888264786452E-10   1.88491080371584E-17   3.40000000000000E-01
      3.40000000000000E-01   0.00000000000000E+00   0.00000000000000E+00   0.00000000000000E+00   0.00000000000000E+00
      0.00000000000000E+00  -2.22883832962841E-17
      3.30000000000000E-01
      0.00000000000000E+00   0.00000000000000E+00   0.00000000000000E+00   0.00000000000000E+00  -1.45835601056079E-13
     -1.36039141373301E-10  -1.36184976974358E-10  -1.04050170471819E-17   1.32000000000000E-01   1.32000000000000E-01
      0.00000000000000E+00   0.00000000000000E+00   0.00000000000000E+00   0.00000000000000E+00   0.00000000000000E+00
      1.54820525052779E-17   3.60000000000000E-01   3.60000000000000E-01   0.00000000000000E+00   0.00000000000000E+00
      1.36179444216960E-10   5.53275739735309E-15   1.36184976974357E-10   1.87851009508610E-17   3.40000000000000E-01
      3.40000000000000E-01   0.00000000000000E+00   0.00000000000000E+00   0.00000000000000E+00   0.00000000000000E+00
      0.00000000000000E+00  -2.38621364089570E-17
      3.45000000000000E-01
      0.00000000000000E+00   0.00000000000000E+00   0.00000000000000E+00   0.00000000000000E+00  -1.47578459152654E-13
     -1.31765992226105E-10  -1.31913570685258E-10  -1.04720919041463E-17   1.38000000000000E-01   1.38000000000000E-01
      0.00000000000000E+00   0.00000000000000E+00   0.00000000000000E+00   0.00000000000000E+00   0.00000000000000E+00
      1.71869359539130E-17   3.60000000000000E-01   3.60000000000000E-01   0.00000000000000E+00   0.00000000000000E+00
      1.31907749777965E-10   5.82090729350704E-15   1.31913570685258E-10   1.87210911570281E-17   3.40000000000000E-01
      3.40000000000000E-01   0.00000000000000E+00   0.00000000000000E+00   0.00000000000000E+00   0.00000000000000E+00
      0.00000000000000E+00  -2.54359352067948E-17
      3.60000000000000E-01
      0.00000000000000E+00   0.00000000000000E+00   0.00000000000000E+00   0.00000000000000E+00  -1.49329183450634E-13
     -1.27897309008947E-10  -1.28046638192397E-10  -1.05390756865236E-17   1.44000000000000E-01   1.44000000000000E-01
      0.00000000000000E+00   0.00000000000000E+00   0.00000000000000E+00   0.00000000000000E+00   0.00000000000000E+00
      1.88917752860266E-17   3.60000000000000E-01   3.60000000000000E-01   0.00000000000000E+00   0.00000000000000E+00
      1.28040563370941E-10   6.07482145627882E-15   1.28046638192397E-10   1.86570785144315E-17   3.40000000000000E-01
      3.40000000000000E-01   0.00000000000000E+00   0.00000000000000E+00   0.00000000000000E+00   0.00000000000000E+00
      0.00000000000000E+00  -2.70097781139345E-17
      3.75000000000000E-01
      0.00000000000000E+00   0.00000000000000E+00   0.00000000000000E+00   0.00000000000000E+00  -1.51087657302414E-13
     -1.24407764170097E-10  -1.24558851827400E-10  -1.06059713025627E-17   1.50000000000000E-01   1.50000000000000E-01
      0.00000000000000E+00   0.00000000000000E+00   0.00000000000000E+00   0.00000000000000E+00   0.00000000000000E+00
      2.05965720241387E-17   3.60000000000000E-01   3.60000000000000E-01   0.00000000000000E+00   0.00000000000000E+00
      1.24552554024270E-10   6.29780312939324E-15   1.24558851827399E-10   1.85930628881432E-17   3.40000000000000E-01
      3.40000000000000E-01   0.00000000000000E+00   0.00000000000000E+00   0.00000000000000E+00   0.00000000000000E+00
      0.00000000000000E+00  -2.85836636097193E-17
      3.90000000000000E-01
      0.00000000000000E+00   0.00000000000000E+00   0.00000000000000E+00   0.00000000000000E+00  -1.52853764818529E-13
     -1.21273985257366E-10  -1.21426839022184E-10  -1.06727815597544E-17   1.56000000000000E-01   1.56000000000000E-01
      0.00000000000000E+00   0.00000000000000E+00   0.00000000000000E+00   0.00000000000000E+00   0.00000000000000E+00
      2.23013276375342E-17   3.60000000000000E-01   3.60000000000000E-01   0.00000000000000E+00   0.00000000000000E+00
      1.21420346160045E-10   6.49286213985447E-15   1.21426839022184E-10   1.85290441486429E-17   3.40000000000000E-01
      3.40000000000000E-01   0.00000000000000E+00   0.00000000000000E+00   0.00000000000000E+00   0.00000000000000E+00
      0.00000000000000E+00  -3.01575902264228E-17
      4.05000000000000E-01
      0.00000000000000E+00   0.00000000000000E+00   0.00000000000000E+00   0.00000000000000E+00  -1.54627390931804E-13
     -1.18474437563042E-10  -1.18629064953974E-10  -1.07395091684157E-17   1.62000000000000E-01   1.62000000000000E-01
      0.00000000000000E+00   0.00000000000000E+00   0.00000000000000E+00   0.00000000000000E+00   0.00000000000000E+00
      2.40060435444769E-17   3.60000000000000E-01   3.60000000000000E-01   0.00000000000000E+00   0.00000000000000E+00
      1.18622402215985E-10   6.66273798863965E-15   1.18629064953974E-10   1.84650221710171E-17   3.40000000000000E-01
      3.40000000000000E-01   0.00000000000000E+00   0.00000000000000E+00   0.00000000000000E+00   0.00000000000000E+00
      0.00000000000000E+00  -3.17315565470783E-17
      4.20000000000000E-01
      0.00000000000000E+00   0.00000000000000E+00   0.00000000000000E+00   0.00000000000000E+00  -1.56408421459279E-13
     -1.15989314371049E-10  -1.16145722792508E-10  -1.08061567451524E-17   1.68000000000000E-01   1.68000000000000E-01
      0.00000000000000E+00   0.00000000000000E+00   0.00000000000000E+00   0.00000000000000E+00   0.00000000000000E+00
      2.57107211143198E-17   3.60000000000000E-01   3.60000000000000E-01   0.00000000000000E+00   0.00000000000000E+00
      1.16138912870573E-10   6.80992193574139E-15   1.16145722792508E-10   1.84009968342390E-17   3.40000000000000E-01
      3.40000000000000E-01   0.00000000000000E+00   0.00000000000000E+00   0.00000000000000E+00   0.00000000000000E+00
      0.00000000000000E+00  -3.33055612034064E-17
      4.35000000000000E-01
      0.00000000000000E+00   0.00000000000000E+00   0.00000000000000E+00   0.00000000000000E+00  -1.58196743162094E-13
     -1.13800434801974E-10  -1.13958631545136E-10  -1.08727268162017E-17   1.74000000000000E-01   1.74000000000000E-01
      0.00000000000000E+00   0.00000000000000E+00   0.00000000000000E+00   0.00000000000000E+00   0.00000000000000E+00
      2.74153616695168E-17   3.60000000000000E-01   3.60000000000000E-01   0.00000000000000E+00   0.00000000000000E+00
      1.13951694868017E-10   6.93667711926090E-15   1.13958631545136E-10   1.83369680205210E-17   3.40000000000000E-01
      3.40000000000000E-01   0.00000000000000E+00   0.00000000000000E+00   0.00000000000000E+00   0.00000000000000E+00
      0.00000000000000E+00  -3.48796028738361E-17
      4.50000000000000E-01
      0.00000000000000E+00   0.00000000000000E+00   0.00000000000000E+00   0.00000000000000E+00  -1.59992243803427E-13
     -1.11891149253269E-10  -1.12051141497072E-10  -1.09392218206611E-17   1.80000000000000E-01   1.80000000000000E-01
      0.00000000000000E+00   0.00000000000000E+00   0.00000000000000E+00   0.00000000000000E+00   0.00000000000000E+00
      2.91199664875436E-17   3.60000000000000E-01   3.60000000000000E-01   0.00000000000000E+00   0.00000000000000E+00
      1.12044096439344E-10   7.04505772769297E-15   1.12051141497072E-10   1.82729356147302E-17   3.40000000000000E-01
      3.40000000000000E-01   0.00000000000000E+00   0.00000000000000E+00   0.00000000000000E+00   0.00000000000000E+00
      0.00000000000000E+00  -3.64536802816126E-17
      4.65000000000000E-01
      0.00000000000000E+00   0.00000000000000E+00   0.00000000000000E+00   0.00000000000000E+00  -1.61794812204494E-13
     -1.10246252430270E-10  -1.10408047242474E-10  -1.10056441136039E-17   1.86000000000000E-01   1.86000000000000E-01
      0.00000000000000E+00   0.00000000000000E+00   0.00000000000000E+00   0.00000000000000E+00   0.00000000000000E+00
      3.08245368027309E-17   3.60000000000000E-01   3.60000000000000E-01   0.00000000000000E+00   0.00000000000000E+00
      1.10400910316452E-10   7.13692602165879E-15   1.10408047242474E-10   1.82088995038608E-17   3.40000000000000E-01
      3.40000000000000E-01   0.00000000000000E+00   0.00000000000000E+00   0.00000000000000E+00   0.00000000000000E+00
      0.00000000000000E+00  -3.80277921929877E-17
      4.80000000000000E-01
      0.00000000000000E+00   0.00000000000000E+00   0.00000000000000E+00   0.00000000000000E+00  -1.63604338298557E-13
     -1.08851903967932E-10  -1.09015508306231E-10  -1.10719959690868E-17   1.92000000000000E-01   1.92000000000000E-01
      0.00000000000000E+00   0.00000000000000E+00   0.00000000000000E+00   0.00000000000000E+00   0.00000000000000E+00
      3.25290738080182E-17   3.60000000000000E-01   3.60000000000000E-01   0.00000000000000E+00   0.00000000000000E+00
      1.09008294337344E-10   7.21396888687202E-15   1.09015508306231E-10   1.81448595765567E-17   3.40000000000000E-01
      3.40000000000000E-01   0.00000000000000E+00   0.00000000000000E+00   0.00000000000000E+00   0.00000000000000E+00
      0.00000000000000E+00  -3.96019374154882E-17
      4.95000000000000E-01
      0.00000000000000E+00   0.00000000000000E+00   0.00000000000000E+00   0.00000000000000E+00  -1.65420713182770E-13
     -1.07695556642518E-10  -1.07860977355701E-10  -1.11382795830519E-17   1.98000000000000E-01   1.98000000000000E-01
      0.00000000000000E+00   0.00000000000000E+00   0.00000000000000E+00   0.00000000000000E+00   0.00000000000000E+00
      3.42335786566301E-17   3.60000000000000E-01   3.60000000000000E-01   0.00000000000000E+00   0.00000000000000E+00
      1.07853699642867E-10   7.27771283363425E-15   1.07860977355701E-10   1.80808157226785E-17   3.40000000000000E-01
      3.40000000000000E-01   0.00000000000000E+00   0.00000000000000E+00   0.00000000000000E+00   0.00000000000000E+00
      0.00000000000000E+00  -4.11761147962566E-17
      5.10000000000000E-01
      0.00000000000000E+00   0.00000000000000E+00   0.00000000000000E+00   0.00000000000000E+00  -1.67243829167680E-13
     -1.06765892176610E-10  -1.06933136005777E-10  -1.12044970761273E-17   2.04000000000000E-01   2.04000000000000E-01
      0.00000000000000E+00   0.00000000000000E+00   0.00000000000000E+00   0.00000000000000E+00   0.00000000000000E+00
      3.59380524636811E-17   3.60000000000000E-01   3.60000000000000E-01   0.00000000000000E+00   0.00000000000000E+00
      1.06925806468071E-10   7.32953770614353E-15   1.06933136005777E-10   1.80167678329088E-17   3.40000000000000E-01
      3.40000000000000E-01   0.00000000000000E+00   0.00000000000000E+00   0.00000000000000E+00   0.00000000000000E+00
      0.00000000000000E+00  -4.27503232204626E-17
      5.25000000000000E-01
      0.00000000000000E+00   0.00000000000000E+00   0.00000000000000E+00   0.00000000000000E+00  -1.69073579824121E-13
     -1.06052764644621E-10  -1.06221838224445E-10  -1.12706504963275E-17   2.10000000000000E-01   2.10000000000000E-01
      0.00000000000000E+00   0.00000000000000E+00   0.00000000000000E+00   0.00000000000000E+00   0.00000000000000E+00
      3.76424963077132E-17   3.60000000000000E-01   3.60000000000000E-01   0.00000000000000E+00   0.00000000000000E+00
      1.06214467534709E-10   7.37068973587258E-15   1.06221838224445E-10   1.79527157983936E-17   3.40000000000000E-01
      3.40000000000000E-01   0.00000000000000E+00   0.00000000000000E+00   0.00000000000000E+00   0.00000000000000E+00
      0.00000000000000E+00  -4.43245616097793E-17
      5.40000000000000E-01
      0.00000000000000E+00   0.00000000000000E+00   0.00000000000000E+00   0.00000000000000E+00  -1.70909860027203E-13
     -1.05547151488555E-10  -1.05718061348583E-10  -1.13367418216593E-17   2.16000000000000E-01   2.16000000000000E-01
      0.00000000000000E+00   0.00000000000000E+00   0.00000000000000E+00   0.00000000000000E+00   0.00000000000000E+00
      3.93469112321677E-17   3.60000000000000E-01   3.60000000000000E-01   0.00000000000000E+00   0.00000000000000E+00
      1.05710659055316E-10   7.40229326701728E-15   1.05718061348583E-10   1.78886595104132E-17   3.40000000000000E-01
      3.40000000000000E-01   0.00000000000000E+00   0.00000000000000E+00   0.00000000000000E+00   0.00000000000000E+00
      0.00000000000000E+00  -4.58988289209216E-17
      5.55000000000000E-01
      0.00000000000000E+00   0.00000000000000E+00   0.00000000000000E+00   0.00000000000000E+00  -1.72752565997102E-13