DF-ISE text

Info {
  version   = 1.0
  type      = xyplot
  datasets  = [
    "time"
    "source OuterVoltage" "source InnerVoltage" "source QuasiFermiPotential" "source DisplacementCurrent" "source eCurrent"
    "source hCurrent" "source TotalCurrent" "source Charge" "topGate OuterVoltage" "topGate InnerVoltage"
    "topGate QuasiFermiPotential" "topGate DisplacementCurrent" "topGate eCurrent" "topGate hCurrent" "topGate TotalCurrent"
    "topGate Charge" "drain OuterVoltage" "drain InnerVoltage" "drain QuasiFermiPotential" "drain DisplacementCurrent"
    "drain eCurrent" "drain hCurrent" "drain TotalCurrent" "drain Charge" "bottomGate OuterVoltage"
    "bottomGate InnerVoltage" "bottomGate QuasiFermiPotential" "bottomGate DisplacementCurrent" "bottomGate eCurrent" "bottomGate hCurrent"
    "bottomGate TotalCurrent" "bottomGate Charge" ]
  functions = [
    Time
    OuterVoltage InnerVoltage QuasiFermiPotential DisplacementCurrent eCurrent
    hCurrent TotalCurrent Charge OuterVoltage InnerVoltage
    QuasiFermiPotential DisplacementCurrent eCurrent hCurrent TotalCurrent
    Charge OuterVoltage InnerVoltage QuasiFermiPotential DisplacementCurrent
    eCurrent hCurrent TotalCurrent Charge OuterVoltage
    InnerVoltage QuasiFermiPotential DisplacementCurrent eCurrent hCurrent
    TotalCurrent Charge ]
}

Data {
      1.50000000000000E-02
      0.00000000000000E+00   0.00000000000000E+00   0.00000000000000E+00   0.00000000000000E+00  -7.29843704244186E-14
     -2.03176399021259E-11  -2.03906242725503E-11  -7.00944486382905E-18   6.00000000000000E-03   6.00000000000000E-03
      0.00000000000000E+00   0.00000000000000E+00   0.00000000000000E+00   0.00000000000000E+00   0.00000000000000E+00
      2.42110816765843E-17   1.10000000000000E-01   1.10000000000000E-01   0.00000000000000E+00   0.00000000000000E+00
      2.03837424239262E-11   6.88184862410948E-15   2.03906242725503E-11   1.65110679628735E-17   1.80000000000000E-01
      1.80000000000000E-01   0.00000000000000E+00   0.00000000000000E+00   0.00000000000000E+00   0.00000000000000E+00
      0.00000000000000E+00  -3.37127047756288E-17
      3.00000000000000E-02
      0.00000000000000E+00   0.00000000000000E+00   0.00000000000000E+00   0.00000000000000E+00  -7.42150631726807E-14
     -2.01496559846989E-11  -2.02238710478716E-11  -7.08740992010250E-18   1.20000000000000E-02   1.20000000000000E-02
      0.00000000000000E+00   0.00000000000000E+00   0.00000000000000E+00   0.00000000000000E+00   0.00000000000000E+00
      2.59220759616699E-17   1.10000000000000E-01   1.10000000000000E-01   0.00000000000000E+00   0.00000000000000E+00
      2.02170286300822E-11   6.84241778936190E-15   2.02238710478716E-11   1.64457064254246E-17   1.80000000000000E-01
      1.80000000000000E-01   0.00000000000000E+00   0.00000000000000E+00   0.00000000000000E+00   0.00000000000000E+00
      0.00000000000000E+00  -3.52803724669920E-17
      4.50000000000000E-02
      0.00000000000000E+00   0.00000000000000E+00   0.00000000000000E+00   0.00000000000000E+00  -7.54570690516963E-14
     -2.00390975248834E-11  -2.01145545939351E-11  -7.16492355767551E-18   1.80000000000000E-02   1.80000000000000E-02
      0.00000000000000E+00   0.00000000000000E+00   0.00000000000000E+00   0.00000000000000E+00   0.00000000000000E+00
      2.76327880592026E-17   1.10000000000000E-01   1.10000000000000E-01   0.00000000000000E+00   0.00000000000000E+00
      2.01077521467731E-11   6.80244716195315E-15   2.01145545939351E-11   1.63804578959408E-17   1.80000000000000E-01
      1.80000000000000E-01   0.00000000000000E+00   0.00000000000000E+00   0.00000000000000E+00   0.00000000000000E+00
      0.00000000000000E+00  -3.68483223974679E-17
      6.00000000000000E-02
      0.00000000000000E+00   0.00000000000000E+00   0.00000000000000E+00   0.00000000000000E+00  -7.67104475818382E-14
     -1.99825468647255E-11  -2.00592573123073E-11  -7.24200046774629E-18   2.40000000000000E-02   2.40000000000000E-02
      0.00000000000000E+00   0.00000000000000E+00   0.00000000000000E+00   0.00000000000000E+00   0.00000000000000E+00
      2.93432317472029E-17   1.10000000000000E-01   1.10000000000000E-01   0.00000000000000E+00   0.00000000000000E+00
      2.00524952992658E-11   6.76201304159225E-15   2.00592573123073E-11   1.63153097109596E-17   1.80000000000000E-01
      1.80000000000000E-01   0.00000000000000E+00   0.00000000000000E+00   0.00000000000000E+00   0.00000000000000E+00
      0.00000000000000E+00  -3.84165409904162E-17
      7.50000000000000E-02
      0.00000000000000E+00   0.00000000000000E+00   0.00000000000000E+00   0.00000000000000E+00  -7.79752461562326E-14
     -1.99769867863675E-11  -2.00549620325237E-11  -7.31865491423494E-18   3.00000000000000E-02   3.00000000000000E-02
      0.00000000000000E+00   0.00000000000000E+00   0.00000000000000E+00   0.00000000000000E+00   0.00000000000000E+00
      3.10534199132196E-17   1.10000000000000E-01   1.10000000000000E-01   0.00000000000000E+00   0.00000000000000E+00
      2.00482408646417E-11   6.72116788196853E-15   2.00549620325237E-11   1.62502505182773E-17   1.80000000000000E-01
      1.80000000000000E-01   0.00000000000000E+00   0.00000000000000E+00   0.00000000000000E+00   0.00000000000000E+00
      0.00000000000000E+00  -3.99850155172619E-17
      9.00000000000000E-02
      0.00000000000000E+00   0.00000000000000E+00   0.00000000000000E+00   0.00000000000000E+00  -7.92515004494941E-14
     -2.00197657018563E-11  -2.00990172023058E-11  -7.39490074013572E-18   3.60000000000000E-02   3.60000000000000E-02
      0.00000000000000E+00   0.00000000000000E+00   0.00000000000000E+00   0.00000000000000E+00   0.00000000000000E+00
      3.27633646310884E-17   1.10000000000000E-01   1.10000000000000E-01   0.00000000000000E+00   0.00000000000000E+00
      2.00923372377393E-11   6.67996456642788E-15   2.00990172023058E-11   1.61852701364943E-17   1.80000000000000E-01
      1.80000000000000E-01   0.00000000000000E+00   0.00000000000000E+00   0.00000000000000E+00   0.00000000000000E+00
      0.00000000000000E+00  -4.15537340274470E-17
      1.05000000000000E-01
      0.00000000000000E+00   0.00000000000000E+00   0.00000000000000E+00   0.00000000000000E+00  -8.05392347897744E-14
     -2.01085660692754E-11  -2.01891053040652E-11  -7.47075137446932E-18   4.20000000000000E-02   4.20000000000000E-02
      0.00000000000000E+00   0.00000000000000E+00   0.00000000000000E+00   0.00000000000000E+00   0.00000000000000E+00
      3.44730772299584E-17   1.10000000000000E-01   1.10000000000000E-01   0.00000000000000E+00   0.00000000000000E+00
      2.01824668491114E-11   6.63845495381258E-15   2.01891053040652E-11   1.61203594296721E-17   1.80000000000000E-01
      1.80000000000000E-01   0.00000000000000E+00   0.00000000000000E+00   0.00000000000000E+00   0.00000000000000E+00
      0.00000000000000E+00  -4.31226852851612E-17
      1.20000000000000E-01
      0.00000000000000E+00   0.00000000000000E+00   0.00000000000000E+00   0.00000000000000E+00  -8.18384624967324E-14
     -2.02413758445499E-11  -2.03232143070467E-11  -7.54621983973441E-18   4.80000000000000E-02   4.80000000000000E-02
      0.00000000000000E+00   0.00000000000000E+00   0.00000000000000E+00   0.00000000000000E+00   0.00000000000000E+00
      3.61825683564216E-17   1.10000000000000E-01   1.10000000000000E-01   0.00000000000000E+00   0.00000000000000E+00
      2.03166176376937E-11   6.59666935301044E-15   2.03232143070467E-11   1.60555101954614E-17   1.80000000000000E-01
      1.80000000000000E-01   0.00000000000000E+00   0.00000000000000E+00   0.00000000000000E+00   0.00000000000000E+00
      0.00000000000000E+00  -4.46918587121486E-17
      1.35000000000000E-01
      0.00000000000000E+00   0.00000000000000E+00   0.00000000000000E+00   0.00000000000000E+00  -8.31491861892452E-14
     -2.04164628548189E-11  -2.04996120410082E-11  -7.62131875976922E-18   5.40000000000000E-02   5.40000000000000E-02
      0.00000000000000E+00   0.00000000000000E+00   0.00000000000000E+00   0.00000000000000E+00   0.00000000000000E+00
      3.78918480304851E-17   1.10000000000000E-01   1.10000000000000E-01   0.00000000000000E+00   0.00000000000000E+00
      2.04930573946164E-11   6.55464639179201E-15   2.04996120410082E-11   1.59907150652422E-17   1.80000000000000E-01
      1.80000000000000E-01   0.00000000000000E+00   0.00000000000000E+00   0.00000000000000E+00   0.00000000000000E+00
      0.00000000000000E+00  -4.62612443359580E-17
      1.50000000000000E-01
      0.00000000000000E+00   0.00000000000000E+00   0.00000000000000E+00   0.00000000000000E+00  -8.44713980680184E-14
     -2.06323518399764E-11  -2.07168232380444E-11  -7.69606036794427E-18   6.00000000000000E-02   6.00000000000000E-02
      0.00000000000000E+00   0.00000000000000E+00   0.00000000000000E+00   0.00000000000000E+00   0.00000000000000E+00
      3.96009256960477E-17   1.10000000000000E-01   1.10000000000000E-01   0.00000000000000E+00   0.00000000000000E+00
      2.07103108101548E-11   6.51242788961378E-15   2.07168232380444E-11   1.59259674149698E-17   1.80000000000000E-01
      1.80000000000000E-01   0.00000000000000E+00   0.00000000000000E+00   0.00000000000000E+00   0.00000000000000E+00
      0.00000000000000E+00  -4.78308327430733E-17
      1.65000000000000E-01
      0.00000000000000E+00   0.00000000000000E+00   0.00000000000000E+00   0.00000000000000E+00  -8.58050801795928E-14
     -2.08878040279585E-11  -2.09736091081381E-11  -7.77045651561673E-18   6.60000000000000E-02   6.60000000000000E-02
      0.00000000000000E+00   0.00000000000000E+00   0.00000000000000E+00   0.00000000000000E+00   0.00000000000000E+00
      4.13098102664679E-17   1.10000000000000E-01   1.10000000000000E-01   0.00000000000000E+00   0.00000000000000E+00
      2.09671390731106E-11   6.47003502744611E-15   2.09736091081381E-11   1.58612612855684E-17   1.80000000000000E-01
      1.80000000000000E-01   0.00000000000000E+00   0.00000000000000E+00   0.00000000000000E+00   0.00000000000000E+00
      0.00000000000000E+00  -4.94006150364195E-17
      1.80000000000000E-01
      0.00000000000000E+00   0.00000000000000E+00   0.00000000000000E+00   0.00000000000000E+00  -8.71502046696271E-14
     -2.11817991740262E-11  -2.12689493786958E-11  -7.84451868078526E-18   7.20000000000000E-02   7.20000000000000E-02
      0.00000000000000E+00   0.00000000000000E+00   0.00000000000000E+00   0.00000000000000E+00   0.00000000000000E+00
      4.30185101657460E-17   1.10000000000000E-01   1.10000000000000E-01   0.00000000000000E+00   0.00000000000000E+00
      2.12625218908076E-11   6.42748788818547E-15   2.12689493786958E-11   1.57965913118348E-17   1.80000000000000E-01
      1.80000000000000E-01   0.00000000000000E+00   0.00000000000000E+00   0.00000000000000E+00   0.00000000000000E+00
      0.00000000000000E+00  -5.09705827967955E-17
      1.95000000000000E-01
      0.00000000000000E+00   0.00000000000000E+00   0.00000000000000E+00   0.00000000000000E+00  -8.85067340343148E-14
     -2.15135198986019E-11  -2.16020266326362E-11  -7.91825797689126E-18   7.80000000000000E-02   7.80000000000000E-02
      0.00000000000000E+00   0.00000000000000E+00   0.00000000000000E+00   0.00000000000000E+00   0.00000000000000E+00
      4.47270333657878E-17   1.10000000000000E-01   1.10000000000000E-01   0.00000000000000E+00   0.00000000000000E+00
      2.15956418182297E-11   6.38481440648720E-15   2.16020266326362E-11   1.57319526589324E-17   1.80000000000000E-01
      1.80000000000000E-01   0.00000000000000E+00   0.00000000000000E+00   0.00000000000000E+00   0.00000000000000E+00
      0.00000000000000E+00  -5.25407280478290E-17
      2.10000000000000E-01
      0.00000000000000E+00   0.00000000000000E+00   0.00000000000000E+00   0.00000000000000E+00  -8.98746213796058E-14
     -2.18823382200116E-11  -2.19722128413912E-11  -7.99168516171938E-18   8.40000000000000E-02   8.40000000000000E-02
      0.00000000000000E+00   0.00000000000000E+00   0.00000000000000E+00   0.00000000000000E+00   0.00000000000000E+00
      4.64353874201634E-17   1.10000000000000E-01   1.10000000000000E-01   0.00000000000000E+00   0.00000000000000E+00
      2.19658708064505E-11   6.34203494072371E-15   2.19722128413912E-11   1.56673409656513E-17   1.80000000000000E-01
      1.80000000000000E-01   0.00000000000000E+00   0.00000000000000E+00   0.00000000000000E+00   0.00000000000000E+00
      0.00000000000000E+00  -5.41110432240953E-17
      2.25000000000000E-01
      0.00000000000000E+00   0.00000000000000E+00   0.00000000000000E+00   0.00000000000000E+00  -9.12538106982844E-14
     -2.22878042551467E-11  -2.23790580658449E-11  -8.06481064635582E-18   9.00000000000000E-02   9.00000000000000E-02
      0.00000000000000E+00   0.00000000000000E+00   0.00000000000000E+00   0.00000000000000E+00   0.00000000000000E+00
      4.81435794947301E-17   1.10000000000000E-01   1.10000000000000E-01   0.00000000000000E+00   0.00000000000000E+00
      2.23727589032133E-11   6.29916263172193E-15   2.23790580658450E-11   1.56027522937037E-17   1.80000000000000E-01
      1.80000000000000E-01   0.00000000000000E+00   0.00000000000000E+00   0.00000000000000E+00   0.00000000000000E+00
      0.00000000000000E+00  -5.56815211420779E-17
      2.40000000000000E-01
      0.00000000000000E+00   0.00000000000000E+00   0.00000000000000E+00   0.00000000000000E+00  -9.26442371748119E-14
     -2.27296370407981E-11  -2.28222812779729E-11  -8.13764450416808E-18   9.60000000000000E-02   9.60000000000000E-02
      0.00000000000000E+00   0.00000000000000E+00   0.00000000000000E+00   0.00000000000000E+00   0.00000000000000E+00
      4.98516163954496E-17   1.10000000000000E-01   1.10000000000000E-01   0.00000000000000E+00   0.00000000000000E+00
      2.28160250621259E-11   6.25621584697992E-15   2.28222812779729E-11   1.55381830824013E-17   1.80000000000000E-01
      1.80000000000000E-01   0.00000000000000E+00   0.00000000000000E+00   0.00000000000000E+00   0.00000000000000E+00
      0.00000000000000E+00  -5.72521549736829E-17
      2.55000000000000E-01
      0.00000000000000E+00   0.00000000000000E+00   0.00000000000000E+00   0.00000000000000E+00  -9.40458275272871E-14
     -2.32077174138753E-11  -2.33017632414026E-11  -8.21019647977459E-18   1.02000000000000E-01   1.02000000000000E-01
      0.00000000000000E+00   0.00000000000000E+00   0.00000000000000E+00   0.00000000000000E+00   0.00000000000000E+00
      5.15595045936922E-17   1.10000000000000E-01   1.10000000000000E-01   0.00000000000000E+00   0.00000000000000E+00
      2.32955500412131E-11   6.21320018962964E-15   2.33017632414027E-11   1.54736301081334E-17   1.80000000000000E-01
      1.80000000000000E-01   0.00000000000000E+00   0.00000000000000E+00   0.00000000000000E+00   0.00000000000000E+00
      0.00000000000000E+00  -5.88229382220511E-17
      2.70000000000000E-01
      0.00000000000000E+00   0.00000000000000E+00   0.00000000000000E+00   0.00000000000000E+00  -9.54585003948249E-14
     -2.37220830313927E-11  -2.38175415317876E-11  -8.28247599797669E-18   1.08000000000000E-01   1.08000000000000E-01
      0.00000000000000E+00   0.00000000000000E+00   0.00000000000000E+00   0.00000000000000E+00   0.00000000000000E+00
      5.32672502492874E-17   1.10000000000000E-01   1.10000000000000E-01   0.00000000000000E+00   0.00000000000000E+00
      2.38113713963166E-11   6.17013547094396E-15   2.38175415317876E-11   1.54090904481259E-17   1.80000000000000E-01
      1.80000000000000E-01   0.00000000000000E+00   0.00000000000000E+00   0.00000000000000E+00   0.00000000000000E+00
      0.00000000000000E+00  -6.03938646994366E-17
      2.85000000000000E-01
      0.00000000000000E+00   0.00000000000000E+00   0.00000000000000E+00   0.00000000000000E+00  -9.68821667769205E-14
     -2.42729254599591E-11  -2.43698076267360E-11  -8.35449217262907E-18   1.14000000000000E-01   1.14000000000000E-01
      0.00000000000000E+00   0.00000000000000E+00   0.00000000000000E+00   0.00000000000000E+00   0.00000000000000E+00
      5.49748592315558E-17   1.10000000000000E-01   1.10000000000000E-01   0.00000000000000E+00   0.00000000000000E+00
      2.43636805998416E-11   6.12702689442018E-15   2.43698076267360E-11   1.53445614480213E-17   1.80000000000000E-01
      1.80000000000000E-01   0.00000000000000E+00   0.00000000000000E+00   0.00000000000000E+00   0.00000000000000E+00
      0.00000000000000E+00  -6.19649285069480E-17
      3.00000000000000E-01
      0.00000000000000E+00   0.00000000000000E+00   0.00000000000000E+00   0.00000000000000E+00  -9.83167305298217E-14
     -2.48605894967200E-11  -2.49589062272499E-11  -8.42625381542805E-18   1.20000000000000E-01   1.20000000000000E-01
      0.00000000000000E+00   0.00000000000000E+00   0.00000000000000E+00   0.00000000000000E+00   0.00000000000000E+00
      5.66823371385276E-17   1.10000000000000E-01   1.10000000000000E-01   0.00000000000000E+00   0.00000000000000E+00
      2.49528223403967E-11   6.08388685315183E-15   2.49589062272499E-11   1.52800406928655E-17   1.80000000000000E-01
      1.80000000000000E-01   0.00000000000000E+00   0.00000000000000E+00   0.00000000000000E+00   0.00000000000000E+00
      0.00000000000000E+00  -6.35361240159651E-17
      3.15000000000000E-01
      0.00000000000000E+00   0.00000000000000E+00   0.00000000000000E+00   0.00000000000000E+00  -9.97620889221453E-14
     -2.54855747162379E-11  -2.55853368051600E-11  -8.49776944459983E-18   1.26000000000000E-01   1.26000000000000E-01
      0.00000000000000E+00   0.00000000000000E+00   0.00000000000000E+00   0.00000000000000E+00   0.00000000000000E+00
      5.83896893145338E-17   1.10000000000000E-01   1.10000000000000E-01   0.00000000000000E+00   0.00000000000000E+00
      2.55792960837953E-11   6.04072136475152E-15   2.55853368051601E-11   1.52155259811364E-17   1.80000000000000E-01
      1.80000000000000E-01   0.00000000000000E+00   0.00000000000000E+00   0.00000000000000E+00   0.00000000000000E+00
      0.00000000000000E+00  -6.51074458510703E-17
      3.30000000000000E-01
      0.00000000000000E+00   0.00000000000000E+00   0.00000000000000E+00   0.00000000000000E+00  -1.01218133250020E-13
     -2.61485394009879E-11  -2.62497575342379E-11  -8.56904729347371E-18   1.32000000000000E-01   1.32000000000000E-01
      0.00000000000000E+00   0.00000000000000E+00   0.00000000000000E+00   0.00000000000000E+00   0.00000000000000E+00
      6.00969208663338E-17   1.10000000000000E-01   1.10000000000000E-01   0.00000000000000E+00   0.00000000000000E+00
      2.62437600004951E-11   5.99753374282007E-15   2.62497575342379E-11   1.51510153014845E-17   1.80000000000000E-01
      1.80000000000000E-01   0.00000000000000E+00   0.00000000000000E+00   0.00000000000000E+00   0.00000000000000E+00
      0.00000000000000E+00  -6.66788888743446E-17
      3.45000000000000E-01
      0.00000000000000E+00   0.00000000000000E+00   0.00000000000000E+00   0.00000000000000E+00  -1.02684749509210E-13
     -2.68503069719122E-11  -2.69529917214214E-11  -8.64009531892709E-18   1.38000000000000E-01   1.38000000000000E-01
      0.00000000000000E+00   0.00000000000000E+00   0.00000000000000E+00   0.00000000000000E+00   0.00000000000000E+00
      6.18040366779276E-17   1.10000000000000E-01   1.10000000000000E-01   0.00000000000000E+00   0.00000000000000E+00
      2.69470373886959E-11   5.95433272549440E-15   2.69529917214213E-11   1.50865068118954E-17   1.80000000000000E-01
      1.80000000000000E-01   0.00000000000000E+00   0.00000000000000E+00   0.00000000000000E+00   0.00000000000000E+00
      0.00000000000000E+00  -6.82504481708958E-17
      3.60000000000000E-01
      0.00000000000000E+00   0.00000000000000E+00   0.00000000000000E+00   0.00000000000000E+00  -1.04161819119014E-13
     -2.75918750482916E-11  -2.76960368674107E-11  -8.71092120969148E-18   1.44000000000000E-01   1.44000000000000E-01
      0.00000000000000E+00   0.00000000000000E+00   0.00000000000000E+00   0.00000000000000E+00   0.00000000000000E+00
      6.35110414241818E-17   1.10000000000000E-01   1.10000000000000E-01   0.00000000000000E+00   0.00000000000000E+00
      2.76901257459083E-11   5.91112150241861E-15   2.76960368674107E-11   1.50219988210133E-17   1.80000000000000E-01
      1.80000000000000E-01   0.00000000000000E+00   0.00000000000000E+00   0.00000000000000E+00   0.00000000000000E+00
      0.00000000000000E+00  -6.98221190355036E-17
      3.75000000000000E-01
      0.00000000000000E+00   0.00000000000000E+00   0.00000000000000E+00   0.00000000000000E+00  -1.05649219690859E-13
     -2.83744273512727E-11  -2.84800765709636E-11  -8.78153239451024E-18   1.50000000000000E-01   1.50000000000000E-01
      0.00000000000000E+00   0.00000000000000E+00   0.00000000000000E+00   0.00000000000000E+00   0.00000000000000E+00
      6.52179395833887E-17   1.10000000000000E-01   1.10000000000000E-01   0.00000000000000E+00   0.00000000000000E+00
      2.84742086647278E-11   5.86790623575356E-15   2.84800765709636E-11   1.49574897713930E-17   1.80000000000000E-01
      1.80000000000000E-01   0.00000000000000E+00   0.00000000000000E+00   0.00000000000000E+00   0.00000000000000E+00
      0.00000000000000E+00  -7.13938969602715E-17
      3.90000000000000E-01
      0.00000000000000E+00   0.00000000000000E+00   0.00000000000000E+00   0.00000000000000E+00  -1.07146825831648E-13
     -2.91993486145676E-11  -2.93064954403993E-11  -8.85193605014053E-18   1.56000000000000E-01   1.56000000000000E-01
      0.00000000000000E+00   0.00000000000000E+00   0.00000000000000E+00   0.00000000000000E+00   0.00000000000000E+00
      6.69247354488619E-17   1.10000000000000E-01   1.10000000000000E-01   0.00000000000000E+00   0.00000000000000E+00
      2.93006707508154E-11   5.82468958387687E-15   2.93064954403993E-11   1.48929782244723E-17   1.80000000000000E-01
      1.80000000000000E-01   0.00000000000000E+00   0.00000000000000E+00   0.00000000000000E+00   0.00000000000000E+00
      0.00000000000000E+00  -7.29657776231936E-17
      4.05000000000000E-01
      0.00000000000000E+00   0.00000000000000E+00   0.00000000000000E+00   0.00000000000000E+00  -1.08654509970684E-13
     -3.00682427439586E-11  -3.01768972539293E-11  -8.92213910919321E-18   1.62000000000000E-01   1.62000000000000E-01
      0.00000000000000E+00   0.00000000000000E+00   0.00000000000000E+00   0.00000000000000E+00   0.00000000000000E+00
      6.86314331396611E-17   1.10000000000000E-01   1.10000000000000E-01   0.00000000000000E+00   0.00000000000000E+00
      3.01711157826782E-11   5.78147125107299E-15   3.01768972539293E-11   1.48284628470824E-17   1.80000000000000E-01
      1.80000000000000E-01   0.00000000000000E+00   0.00000000000000E+00   0.00000000000000E+00   0.00000000000000E+00
      0.00000000000000E+00  -7.45377568775503E-17
      4.20000000000000E-01
      0.00000000000000E+00   0.00000000000000E+00   0.00000000000000E+00   0.00000000000000E+00  -1.10172143197466E-13
     -3.09829544640332E-11  -3.10931266072307E-11  -8.99214826780585E-18   1.68000000000000E-01   1.68000000000000E-01
      0.00000000000000E+00   0.00000000000000E+00   0.00000000000000E+00   0.00000000000000E+00   0.00000000000000E+00
      7.03380366105314E-17   1.10000000000000E-01   1.10000000000000E-01   0.00000000000000E+00   0.00000000000000E+00
      3.10873883538885E-11   5.73825334220156E-15   3.10931266072307E-11   1.47639423993289E-17   1.80000000000000E-01
      1.80000000000000E-01   0.00000000000000E+00   0.00000000000000E+00   0.00000000000000E+00   0.00000000000000E+00
      0.00000000000000E+00  -7.61098307420545E-17
      4.35000000000000E-01
      0.00000000000000E+00   0.00000000000000E+00   0.00000000000000E+00   0.00000000000000E+00  -1.11699596096266E-13
     -3.19455947004267E-11  -3.20572942965229E-11  -9.06196999314486E-18   1.74000000000000E-01   1.74000000000000E-01
      0.00000000000000E+00   0.00000000000000E+00   0.00000000000000E+00   0.00000000000000E+00   0.00000000000000E+00
      7.20445496611304E-17   1.10000000000000E-01   1.10000000000000E-01   0.00000000000000E+00   0.00000000000000E+00
      3.20515992590116E-11   5.69503751127861E-15   3.20572942965229E-11   1.46994157236967E-17   1.80000000000000E-01
      1.80000000000000E-01   0.00000000000000E+00   0.00000000000000E+00   0.00000000000000E+00   0.00000000000000E+00
      0.00000000000000E+00  -7.76819953916821E-17
      4.50000000000000E-01
      0.00000000000000E+00   0.00000000000000E+00   0.00000000000000E+00   0.00000000000000E+00  -1.13236739563518E-13
     -3.29585699898084E-11  -3.30718067293719E-11  -9.13161053073398E-18   1.80000000000000E-01   1.80000000000000E-01
      0.00000000000000E+00   0.00000000000000E+00   0.00000000000000E+00   0.00000000000000E+00   0.00000000000000E+00
      7.37509759446100E-17   1.10000000000000E-01   1.10000000000000E-01   0.00000000000000E+00   0.00000000000000E+00
      3.30661549050085E-11   5.65182436323927E-15   3.30718067293718E-11   1.46348817352479E-17   1.80000000000000E-01
      1.80000000000000E-01   0.00000000000000E+00   0.00000000000000E+00   0.00000000000000E+00   0.00000000000000E+00
      0.00000000000000E+00  -7.92542471491238E-17
      4.65000000000000E-01
      0.00000000000000E+00   0.00000000000000E+00   0.00000000000000E+00   0.00000000000000E+00  -1.14783445593659E-13
     -3.40246162176160E-11  -3.41393996632096E-11  -9.20107591160694E-18   1.86000000000000E-01   1.86000000000000E-01
      0.00000000000000E+00   0.00000000000000E+00   0.00000000000000E+00   0.00000000000000E+00   0.00000000000000E+00
      7.54573189756139E-17   1.10000000000000E-01   1.10000000000000E-01   0.00000000000000E+00   0.00000000000000E+00
      3.41337910506082E-11   5.60861260143239E-15   3.41393996632096E-11   1.45703394127950E-17   1.80000000000000E-01
      1.80000000000000E-01   0.00000000000000E+00   0.00000000000000E+00   0.00000000000000E+00   0.00000000000000E+00
      0.00000000000000E+00  -8.08265824768020E-17
      4.80000000000000E-01
      0.00000000000000E+00   0.00000000000000E+00   0.00000000000000E+00   0.00000000000000E+00  -1.16339588019738E-13
     -3.51468370100380E-11  -3.52631765980578E-11  -9.27037195928318E-18   1.92000000000000E-01   1.92000000000000E-01
      0.00000000000000E+00   0.00000000000000E+00   0.00000000000000E+00   0.00000000000000E+00   0.00000000000000E+00
      7.71635821377433E-17   1.10000000000000E-01   1.10000000000000E-01   0.00000000000000E+00   0.00000000000000E+00
      3.52576111975747E-11   5.56540048307219E-15   3.52631765980578E-11   1.45057877909441E-17   1.80000000000000E-01
      1.80000000000000E-01   0.00000000000000E+00   0.00000000000000E+00   0.00000000000000E+00   0.00000000000000E+00
      0.00000000000000E+00  -8.23989979694043E-17
      4.95000000000000E-01
      0.00000000000000E+00   0.00000000000000E+00   0.00000000000000E+00   0.00000000000000E+00  -1.17905043195938E-13
     -3.63287471243950E-11  -3.64466521675909E-11  -9.33950429656600E-18   1.98000000000000E-01   1.98000000000000E-01
      0.00000000000000E+00   0.00000000000000E+00   0.00000000000000E+00   0.00000000000000E+00   0.00000000000000E+00
      7.88697686905392E-17   1.10000000000000E-01   1.10000000000000E-01   0.00000000000000E+00   0.00000000000000E+00
      3.64411299806031E-11   5.52218698783978E-15   3.64466521675910E-11   1.44412259529140E-17   1.80000000000000E-01
      1.80000000000000E-01   0.00000000000000E+00   0.00000000000000E+00   0.00000000000000E+00   0.00000000000000E+00
      0.00000000000000E+00  -8.39714903468872E-17
      5.10000000000000E-01
      0.00000000000000E+00   0.00000000000000E+00   0.00000000000000E+00   0.00000000000000E+00  -1.19479690610182E-13
     -3.75743212042506E-11  -3.76938008948607E-11  -9.40847835216298E-18   2.04000000000000E-01   2.04000000000000E-01
      0.00000000000000E+00   0.00000000000000E+00   0.00000000000000E+00   0.00000000000000E+00   0.00000000000000E+00
      8.05758817760246E-17   1.10000000000000E-01   1.10000000000000E-01   0.00000000000000E+00   0.00000000000000E+00
      3.76883219275167E-11   5.47896734405888E-15   3.76938008948607E-11   1.43766530240492E-17   1.80000000000000E-01
      1.80000000000000E-01   0.00000000000000E+00   0.00000000000000E+00   0.00000000000000E+00   0.00000000000000E+00
      0.00000000000000E+00  -8.55440564479109E-17
      5.25000000000000E-01
      0.00000000000000E+00   0.00000000000000E+00   0.00000000000000E+00   0.00000000000000E+00  -1.21063413417616E-13
     -3.88880483150970E-11  -3.90091117285146E-11  -9.47729936712941E-18   2.10000000000000E-01   2.10000000000000E-01
      0.00000000000000E+00   0.00000000000000E+00   0.00000000000000E+00   0.00000000000000E+00   0.00000000000000E+00
      8.22819244248462E-17   1.10000000000000E-01   1.10000000000000E-01   0.00000000000000E+00   0.00000000000000E+00
      3.90036759895324E-11   5.43573898225521E-15   3.90091117285146E-11   1.43120681659495E-17   1.80000000000000E-01
      1.80000000000000E-01   0.00000000000000E+00   0.00000000000000E+00   0.00000000000000E+00   0.00000000000000E+00
      0.00000000000000E+00  -8.71166932236664E-17
      5.40000000000000E-01
      0.00000000000000E+00   0.00000000000000E+00   0.00000000000000E+00   0.00000000000000E+00  -1.22656098886075E-13
     -4.02749926709547E-11  -4.03976487698408E-11  -9.54597240113553E-18   2.16000000000000E-01   2.16000000000000E-01
      0.00000000000000E+00   0.00000000000000E+00   0.00000000000000E+00   0.00000000000000E+00   0.00000000000000E+00
      8.39878995620488E-17   1.10000000000000E-01   1.10000000000000E-01   0.00000000000000E+00   0.00000000000000E+00
      4.03922562737375E-11   5.39249610330393E-15   4.03976487698408E-11   1.42474705711506E-17   1.80000000000000E-01
      1.80000000000000E-01   0.00000000000000E+00   0.00000000000000E+00   0.00000000000000E+00   0.00000000000000E+00
      0.00000000000000E+00  -8.86893977320639E-17
      5.55000000000000E-01
      0.00000000000000E+00   0.00000000000000E+00   0.00000000000000E+00   0.00000000000000E+00  -1.24257638748448E-13