DF-ISE text

Info {
  version   = 1.0
  type      = xyplot
  datasets  = [
    "time"
    "source OuterVoltage" "source InnerVoltage" "source QuasiFermiPotential" "source DisplacementCurrent" "source eCurrent"
    "source hCurrent" "source TotalCurrent" "source Charge" "topGate OuterVoltage" "topGate InnerVoltage"
    "topGate QuasiFermiPotential" "topGate DisplacementCurrent" "topGate eCurrent" "topGate hCurrent" "topGate TotalCurrent"
    "topGate Charge" "drain OuterVoltage" "drain InnerVoltage" "drain QuasiFermiPotential" "drain DisplacementCurrent"
    "drain eCurrent" "drain hCurrent" "drain TotalCurrent" "drain Charge" "bottomGate OuterVoltage"
    "bottomGate InnerVoltage" "bottomGate QuasiFermiPotential" "bottomGate DisplacementCurrent" "bottomGate eCurrent" "bottomGate hCurrent"
    "bottomGate TotalCurrent" "bottomGate Charge" ]
  functions = [
    Time
    OuterVoltage InnerVoltage QuasiFermiPotential DisplacementCurrent eCurrent
    hCurrent TotalCurrent Charge OuterVoltage InnerVoltage
    QuasiFermiPotential DisplacementCurrent eCurrent hCurrent TotalCurrent
    Charge OuterVoltage InnerVoltage QuasiFermiPotential DisplacementCurrent
    eCurrent hCurrent TotalCurrent Charge OuterVoltage
    InnerVoltage QuasiFermiPotential DisplacementCurrent eCurrent hCurrent
    TotalCurrent Charge ]
}

Data {
      1.50000000000000E-02
      0.00000000000000E+00   0.00000000000000E+00   0.00000000000000E+00   0.00000000000000E+00  -4.38111201098733E-14
     -1.86349975347664E-10  -1.86393786467774E-10  -4.86231420099874E-18   6.00000000000000E-03   6.00000000000000E-03
      0.00000000000000E+00   0.00000000000000E+00   0.00000000000000E+00   0.00000000000000E+00   0.00000000000000E+00
      6.35473928674642E-17   8.00000000000000E-02   8.00000000000000E-02   0.00000000000000E+00   0.00000000000000E+00
      1.86386701761048E-10   7.08470672665046E-15   1.86393786467774E-10   1.76747031615556E-17   3.00000000000000E-02
      3.00000000000000E-02   0.00000000000000E+00   0.00000000000000E+00   0.00000000000000E+00   0.00000000000000E+00
      0.00000000000000E+00  -7.63597818280211E-17
      3.00000000000000E-02
      0.00000000000000E+00   0.00000000000000E+00   0.00000000000000E+00   0.00000000000000E+00  -4.48039043417354E-14
     -1.89037020834529E-10  -1.89081824738871E-10  -4.95748943599669E-18   1.20000000000000E-02   1.20000000000000E-02
      0.00000000000000E+00   0.00000000000000E+00   0.00000000000000E+00   0.00000000000000E+00   0.00000000000000E+00
      6.52759265118752E-17   8.00000000000000E-02   8.00000000000000E-02   0.00000000000000E+00   0.00000000000000E+00
      1.89074752817908E-10   7.07192096266152E-15   1.89081824738871E-10   1.75902023134524E-17   3.00000000000000E-02
      3.00000000000000E-02   0.00000000000000E+00   0.00000000000000E+00   0.00000000000000E+00   0.00000000000000E+00
      0.00000000000000E+00  -7.79086393893310E-17
      4.50000000000000E-02
      0.00000000000000E+00   0.00000000000000E+00   0.00000000000000E+00   0.00000000000000E+00  -4.57997032844194E-14
     -1.91921908993758E-10  -1.91967708697042E-10  -5.05172756710913E-18   1.80000000000000E-02   1.80000000000000E-02
      0.00000000000000E+00   0.00000000000000E+00   0.00000000000000E+00   0.00000000000000E+00   0.00000000000000E+00
      6.70030570261577E-17   8.00000000000000E-02   8.00000000000000E-02   0.00000000000000E+00   0.00000000000000E+00
      1.91960652438709E-10   7.05625833241889E-15   1.91967708697042E-10   1.75076634645371E-17   3.00000000000000E-02
      3.00000000000000E-02   0.00000000000000E+00   0.00000000000000E+00   0.00000000000000E+00   0.00000000000000E+00
      0.00000000000000E+00  -7.94589929235857E-17
      6.00000000000000E-02
      0.00000000000000E+00   0.00000000000000E+00   0.00000000000000E+00   0.00000000000000E+00  -4.67989719387011E-14
     -1.95004154149987E-10  -1.95050953121925E-10  -5.14504988616913E-18   2.40000000000000E-02   2.40000000000000E-02
      0.00000000000000E+00   0.00000000000000E+00   0.00000000000000E+00   0.00000000000000E+00   0.00000000000000E+00
      6.87288873773911E-17   8.00000000000000E-02   8.00000000000000E-02   0.00000000000000E+00   0.00000000000000E+00
      1.95043915941063E-10   7.03718086267213E-15   1.95050953121925E-10   1.74268962496867E-17   3.00000000000000E-02
      3.00000000000000E-02   0.00000000000000E+00   0.00000000000000E+00   0.00000000000000E+00   0.00000000000000E+00
      0.00000000000000E+00  -8.10107337409087E-17
      7.50000000000000E-02
      0.00000000000000E+00   0.00000000000000E+00   0.00000000000000E+00   0.00000000000000E+00  -4.78021241606659E-14
     -1.98283707607206E-10  -1.98331509731367E-10  -5.23747796639111E-18   3.00000000000000E-02   3.00000000000000E-02
      0.00000000000000E+00   0.00000000000000E+00   0.00000000000000E+00   0.00000000000000E+00   0.00000000000000E+00
      7.04535116282090E-17   8.00000000000000E-02   8.00000000000000E-02   0.00000000000000E+00   0.00000000000000E+00
      1.98324494402862E-10   7.01532850576256E-15   1.98331509731367E-10   1.73477286039286E-17   3.00000000000000E-02
      3.00000000000000E-02   0.00000000000000E+00   0.00000000000000E+00   0.00000000000000E+00   0.00000000000000E+00
      0.00000000000000E+00  -8.25637622657465E-17
      9.00000000000000E-02
      0.00000000000000E+00   0.00000000000000E+00   0.00000000000000E+00   0.00000000000000E+00  -4.88095242407168E-14
     -2.01760945259150E-10  -2.01809754783391E-10  -5.32903356391722E-18   3.60000000000000E-02   3.60000000000000E-02
      0.00000000000000E+00   0.00000000000000E+00   0.00000000000000E+00   0.00000000000000E+00   0.00000000000000E+00
      7.21770157573358E-17   8.00000000000000E-02   8.00000000000000E-02   0.00000000000000E+00   0.00000000000000E+00
      2.01802763800777E-10   6.99098261361271E-15   2.01809754783391E-10   1.72700050400377E-17   3.00000000000000E-02
      3.00000000000000E-02   0.00000000000000E+00   0.00000000000000E+00   0.00000000000000E+00   0.00000000000000E+00
      0.00000000000000E+00  -8.41179872334562E-17
      1.05000000000000E-01
      0.00000000000000E+00   0.00000000000000E+00   0.00000000000000E+00   0.00000000000000E+00  -4.98214789437469E-14
     -2.05436659369391E-10  -2.05486480848335E-10  -5.41973852965396E-18   4.20000000000000E-02   4.20000000000000E-02
      0.00000000000000E+00   0.00000000000000E+00   0.00000000000000E+00   0.00000000000000E+00   0.00000000000000E+00
      7.38994784059692E-17   8.00000000000000E-02   8.00000000000000E-02   0.00000000000000E+00   0.00000000000000E+00
      2.05479516391079E-10   6.96445725542046E-15   2.05486480848335E-10   1.71935850789260E-17   3.00000000000000E-02
      3.00000000000000E-02   0.00000000000000E+00   0.00000000000000E+00   0.00000000000000E+00   0.00000000000000E+00
      0.00000000000000E+00  -8.56733249552411E-17
      1.20000000000000E-01
      0.00000000000000E+00   0.00000000000000E+00   0.00000000000000E+00   0.00000000000000E+00  -5.08382301896998E-14
     -2.09312052310716E-10  -2.09362890540906E-10  -5.50961473066092E-18   4.80000000000000E-02   4.80000000000000E-02
      0.00000000000000E+00   0.00000000000000E+00   0.00000000000000E+00   0.00000000000000E+00   0.00000000000000E+00
      7.56209715559341E-17   8.00000000000000E-02   8.00000000000000E-02   0.00000000000000E+00   0.00000000000000E+00
      2.09355954434269E-10   6.93610663696204E-15   2.09362890540906E-10   1.71183418212520E-17   3.00000000000000E-02
      3.00000000000000E-02   0.00000000000000E+00   0.00000000000000E+00   0.00000000000000E+00   0.00000000000000E+00
      0.00000000000000E+00  -8.72296986465252E-17
      1.35000000000000E-01
      0.00000000000000E+00   0.00000000000000E+00   0.00000000000000E+00   0.00000000000000E+00  -5.18599485824261E-14
     -2.13388732516325E-10  -2.13440592464908E-10  -5.59868398037089E-18   5.40000000000000E-02   5.40000000000000E-02
      0.00000000000000E+00   0.00000000000000E+00   0.00000000000000E+00   0.00000000000000E+00   0.00000000000000E+00
      7.73415611452426E-17   8.00000000000000E-02   8.00000000000000E-02   0.00000000000000E+00   0.00000000000000E+00
      2.13433686402964E-10   6.90606194341414E-15   2.13440592464908E-10   1.70441606491332E-17   3.00000000000000E-02
      3.00000000000000E-02   0.00000000000000E+00   0.00000000000000E+00   0.00000000000000E+00   0.00000000000000E+00
      0.00000000000000E+00  -8.87870378140049E-17
      1.50000000000000E-01
      0.00000000000000E+00   0.00000000000000E+00   0.00000000000000E+00   0.00000000000000E+00  -5.28867280092314E-14
     -2.17668713557545E-10  -2.17721600285554E-10  -5.68696797694229E-18   6.00000000000000E-02   6.00000000000000E-02
      0.00000000000000E+00   0.00000000000000E+00   0.00000000000000E+00   0.00000000000000E+00   0.00000000000000E+00
      7.90613076263717E-17   8.00000000000000E-02   8.00000000000000E-02   0.00000000000000E+00   0.00000000000000E+00
      2.17714725856050E-10   6.87442950422730E-15   2.17721600285554E-10   1.69709380473805E-17   3.00000000000000E-02
      3.00000000000000E-02   0.00000000000000E+00   0.00000000000000E+00   0.00000000000000E+00   0.00000000000000E+00
      0.00000000000000E+00  -9.03452776968100E-17
      1.65000000000000E-01
      0.00000000000000E+00   0.00000000000000E+00   0.00000000000000E+00   0.00000000000000E+00  -5.39185815325846E-14
     -2.22154416145532E-10  -2.22208334727064E-10  -5.77448824907515E-18   6.60000000000000E-02   6.60000000000000E-02
      0.00000000000000E+00   0.00000000000000E+00   0.00000000000000E+00   0.00000000000000E+00   0.00000000000000E+00
      8.07802664722394E-17   8.00000000000000E-02   8.00000000000000E-02   0.00000000000000E+00   0.00000000000000E+00
      2.22201493212115E-10   6.84151494895082E-15   2.22208334727064E-10   1.68985805342664E-17   3.00000000000000E-02
      3.00000000000000E-02   0.00000000000000E+00   0.00000000000000E+00   0.00000000000000E+00   0.00000000000000E+00
      0.00000000000000E+00  -9.19043587574306E-17
      1.80000000000000E-01
      0.00000000000000E+00   0.00000000000000E+00   0.00000000000000E+00   0.00000000000000E+00  -5.49554387785657E-14
     -2.26848672813538E-10  -2.26903628252317E-10  -5.86126610865332E-18   7.20000000000000E-02   7.20000000000000E-02
      0.00000000000000E+00   0.00000000000000E+00   0.00000000000000E+00   0.00000000000000E+00   0.00000000000000E+00
      8.24984886345105E-17   8.00000000000000E-02   8.00000000000000E-02   0.00000000000000E+00   0.00000000000000E+00
      2.26896820712605E-10   6.80753971195006E-15   2.26903628252317E-10   1.68270036924543E-17   3.00000000000000E-02
      3.00000000000000E-02   0.00000000000000E+00   0.00000000000000E+00   0.00000000000000E+00   0.00000000000000E+00
      0.00000000000000E+00  -9.34642262183115E-17
      1.95000000000000E-01
      0.00000000000000E+00   0.00000000000000E+00   0.00000000000000E+00   0.00000000000000E+00  -5.59971449953469E-14
     -2.31754736293695E-10  -2.31810733438691E-10  -5.94732260961150E-18   7.80000000000000E-02   7.80000000000000E-02
      0.00000000000000E+00   0.00000000000000E+00   0.00000000000000E+00   0.00000000000000E+00   0.00000000000000E+00
      8.42160209585317E-17   8.00000000000000E-02   8.00000000000000E-02   0.00000000000000E+00   0.00000000000000E+00
      2.31803960931210E-10   6.77250748045954E-15   2.31810733438691E-10   1.67561312913501E-17   3.00000000000000E-02
      3.00000000000000E-02   0.00000000000000E+00   0.00000000000000E+00   0.00000000000000E+00   0.00000000000000E+00
      0.00000000000000E+00  -9.50248296402703E-17
      2.10000000000000E-01
      0.00000000000000E+00   0.00000000000000E+00   0.00000000000000E+00   0.00000000000000E+00  -5.70434619113134E-14
     -2.36876292351091E-10  -2.36933335813003E-10  -6.03267851246194E-18   8.40000000000000E-02   8.40000000000000E-02
      0.00000000000000E+00   0.00000000000000E+00   0.00000000000000E+00   0.00000000000000E+00   0.00000000000000E+00
      8.59329065588594E-17   8.00000000000000E-02   8.00000000000000E-02   0.00000000000000E+00   0.00000000000000E+00
      2.36926599262066E-10   6.73655093694189E-15   2.36933335813003E-10   1.66858944927566E-17   3.00000000000000E-02
      3.00000000000000E-02   0.00000000000000E+00   0.00000000000000E+00   0.00000000000000E+00   0.00000000000000E+00
      0.00000000000000E+00  -9.65861225391541E-17
      2.25000000000000E-01
      0.00000000000000E+00   0.00000000000000E+00   0.00000000000000E+00   0.00000000000000E+00  -5.80940704696245E-14
     -2.42217476470048E-10  -2.42275570540518E-10  -6.11735425395266E-18   9.00000000000000E-02   9.00000000000000E-02
      0.00000000000000E+00   0.00000000000000E+00   0.00000000000000E+00   0.00000000000000E+00   0.00000000000000E+00
      8.76491851590287E-17   8.00000000000000E-02   8.00000000000000E-02   0.00000000000000E+00   0.00000000000000E+00
      2.42268870907102E-10   6.69963341553529E-15   2.42275570540517E-10   1.66162311323287E-17   3.00000000000000E-02
      3.00000000000000E-02   0.00000000000000E+00   0.00000000000000E+00   0.00000000000000E+00   0.00000000000000E+00
      0.00000000000000E+00  -9.81480620374048E-17
      2.40000000000000E-01
      0.00000000000000E+00   0.00000000000000E+00   0.00000000000000E+00   0.00000000000000E+00  -5.91485754575470E-14
     -2.47782896494286E-10  -2.47842045069743E-10  -6.20136992136594E-18   9.60000000000000E-02   9.60000000000000E-02
      0.00000000000000E+00   0.00000000000000E+00   0.00000000000000E+00   0.00000000000000E+00   0.00000000000000E+00
      8.93648933989085E-17   8.00000000000000E-02   8.00000000000000E-02   0.00000000000000E+00   0.00000000000000E+00
      2.47835382983995E-10   6.66208574869975E-15   2.47842045069744E-10   1.65470850699079E-17   3.00000000000000E-02
      3.00000000000000E-02   0.00000000000000E+00   0.00000000000000E+00   0.00000000000000E+00   0.00000000000000E+00
      0.00000000000000E+00  -9.97106085474505E-17
      2.55000000000000E-01
      0.00000000000000E+00   0.00000000000000E+00   0.00000000000000E+00   0.00000000000000E+00  -6.02065119887058E-14
     -2.53577659999301E-10  -2.53637866511290E-10  -6.28474523100169E-18   1.02000000000000E-01   1.02000000000000E-01
      0.00000000000000E+00   0.00000000000000E+00   0.00000000000000E+00   0.00000000000000E+00   0.00000000000000E+00
      9.10800651127018E-17   8.00000000000000E-02   8.00000000000000E-02   0.00000000000000E+00   0.00000000000000E+00
      2.53631242492584E-10   6.62401870501168E-15   2.53637866511289E-10   1.64784056023829E-17   3.00000000000000E-02
      3.00000000000000E-02   0.00000000000000E+00   0.00000000000000E+00   0.00000000000000E+00   0.00000000000000E+00
      0.00000000000000E+00  -1.01273725484083E-16
      2.70000000000000E-01
      0.00000000000000E+00   0.00000000000000E+00   0.00000000000000E+00   0.00000000000000E+00  -6.12673537378857E-14
     -2.59607408921816E-10  -2.59668676275554E-10  -6.36749951042580E-18   1.08000000000000E-01   1.08000000000000E-01
      0.00000000000000E+00   0.00000000000000E+00   0.00000000000000E+00   0.00000000000000E+00   0.00000000000000E+00
      9.27947315803818E-17   8.00000000000000E-02   8.00000000000000E-02   0.00000000000000E+00   0.00000000000000E+00
      2.59662091011215E-10   6.58526433981698E-15   2.59668676275554E-10   1.64101469332496E-17   3.00000000000000E-02
      3.00000000000000E-02   0.00000000000000E+00   0.00000000000000E+00   0.00000000000000E+00   0.00000000000000E+00
      0.00000000000000E+00  -1.02837379003206E-16
      2.85000000000000E-01
      0.00000000000000E+00   0.00000000000000E+00   0.00000000000000E+00   0.00000000000000E+00  -6.23305227743374E-14
     -2.65878362713348E-10  -2.65940693236122E-10  -6.44965168409664E-18   1.14000000000000E-01   1.14000000000000E-01
      0.00000000000000E+00   0.00000000000000E+00   0.00000000000000E+00   0.00000000000000E+00   0.00000000000000E+00
      9.45089217551090E-17   8.00000000000000E-02   8.00000000000000E-02   0.00000000000000E+00   0.00000000000000E+00
      2.65934147147278E-10   6.54608884416334E-15   2.65940693236122E-10   1.63422676935441E-17   3.00000000000000E-02
      3.00000000000000E-02   0.00000000000000E+00   0.00000000000000E+00   0.00000000000000E+00   0.00000000000000E+00
      0.00000000000000E+00  -1.04401537764556E-16
      3.00000000000000E-01
      0.00000000000000E+00   0.00000000000000E+00   0.00000000000000E+00   0.00000000000000E+00  -6.33954007933475E-14
     -2.72397369063683E-10  -2.72460764464477E-10  -6.53122026201480E-18   1.20000000000000E-01   1.20000000000000E-01
      0.00000000000000E+00   0.00000000000000E+00   0.00000000000000E+00   0.00000000000000E+00   0.00000000000000E+00
      9.62226624689365E-17   8.00000000000000E-02   8.00000000000000E-02   0.00000000000000E+00   0.00000000000000E+00
      2.72454257940016E-10   6.50652446101999E-15   2.72460764464477E-10   1.62747305092855E-17   3.00000000000000E-02
      3.00000000000000E-02   0.00000000000000E+00   0.00000000000000E+00   0.00000000000000E+00   0.00000000000000E+00
      0.00000000000000E+00  -1.05966172716207E-16
      3.15000000000000E-01
      0.00000000000000E+00   0.00000000000000E+00   0.00000000000000E+00   0.00000000000000E+00  -6.44613415086826E-14
     -2.79171965830505E-10  -2.79236427172014E-10  -6.61222333107176E-18   1.26000000000000E-01   1.26000000000000E-01
      0.00000000000000E+00   0.00000000000000E+00   0.00000000000000E+00   0.00000000000000E+00   0.00000000000000E+00
      9.79359786189070E-17   8.00000000000000E-02   8.00000000000000E-02   0.00000000000000E+00   0.00000000000000E+00
      2.79229960610219E-10   6.46656179512749E-15   2.79236427172014E-10   1.62075016110011E-17   3.00000000000000E-02
      3.00000000000000E-02   0.00000000000000E+00   0.00000000000000E+00   0.00000000000000E+00   0.00000000000000E+00
      0.00000000000000E+00  -1.07531256898836E-16
      3.30000000000000E-01
      0.00000000000000E+00   0.00000000000000E+00   0.00000000000000E+00   0.00000000000000E+00  -6.55276839417489E-14
     -2.86210454898487E-10  -2.86275982582429E-10  -6.69267854880121E-18   1.32000000000000E-01   1.32000000000000E-01
      0.00000000000000E+00   0.00000000000000E+00   0.00000000000000E+00   0.00000000000000E+00   0.00000000000000E+00
      9.96488933354399E-17   8.00000000000000E-02   8.00000000000000E-02   0.00000000000000E+00   0.00000000000000E+00
      2.86269556272313E-10   6.42631011609182E-15   2.86275982582429E-10   1.61405504813030E-17   3.00000000000000E-02
      3.00000000000000E-02   0.00000000000000E+00   0.00000000000000E+00   0.00000000000000E+00   0.00000000000000E+00
      0.00000000000000E+00  -1.09096765267942E-16
      3.45000000000000E-01
      0.00000000000000E+00   0.00000000000000E+00   0.00000000000000E+00   0.00000000000000E+00  -6.65937663267927E-14
     -2.93521989375729E-10  -2.93588583142056E-10  -6.77260313926306E-18   1.38000000000000E-01   1.38000000000000E-01
      0.00000000000000E+00   0.00000000000000E+00   0.00000000000000E+00   0.00000000000000E+00   0.00000000000000E+00
      1.01361428134734E-16   8.00000000000000E-02   8.00000000000000E-02   0.00000000000000E+00   0.00000000000000E+00
      2.93582197470573E-10   6.38567148252667E-15   2.93588583142056E-10   1.60738495368544E-17   3.00000000000000E-02
      3.00000000000000E-02   0.00000000000000E+00   0.00000000000000E+00   0.00000000000000E+00   0.00000000000000E+00
      0.00000000000000E+00  -1.10662674532325E-16
      3.60000000000000E-01
      0.00000000000000E+00   0.00000000000000E+00   0.00000000000000E+00   0.00000000000000E+00  -6.76589403452998E-14
     -3.01116677552388E-10  -3.01184336492733E-10  -6.85201389081551E-18   1.44000000000000E-01   1.44000000000000E-01
      0.00000000000000E+00   0.00000000000000E+00   0.00000000000000E+00   0.00000000000000E+00   0.00000000000000E+00
      1.03073603056745E-16   8.00000000000000E-02   8.00000000000000E-02   0.00000000000000E+00   0.00000000000000E+00
      3.01177991673712E-10   6.34481902116053E-15   3.01184336492733E-10   1.60073738414052E-17   3.00000000000000E-02
      3.00000000000000E-02   0.00000000000000E+00   0.00000000000000E+00   0.00000000000000E+00   0.00000000000000E+00
      0.00000000000000E+00  -1.12228963007335E-16
      3.75000000000000E-01
      0.00000000000000E+00   0.00000000000000E+00   0.00000000000000E+00   0.00000000000000E+00  -6.87225854055933E-14
     -3.09005704295009E-10  -3.09074426880414E-10  -6.93092715555238E-18   1.50000000000000E-01   1.50000000000000E-01
      0.00000000000000E+00   0.00000000000000E+00   0.00000000000000E+00   0.00000000000000E+00   0.00000000000000E+00
      1.04785436790147E-16   8.00000000000000E-02   8.00000000000000E-02   0.00000000000000E+00   0.00000000000000E+00
      3.09068123161195E-10   6.30371921955012E-15   3.09074426880414E-10   1.59411008468822E-17   3.00000000000000E-02
      3.00000000000000E-02   0.00000000000000E+00   0.00000000000000E+00   0.00000000000000E+00   0.00000000000000E+00
      0.00000000000000E+00  -1.13795610481477E-16
      3.90000000000000E-01
      0.00000000000000E+00   0.00000000000000E+00   0.00000000000000E+00   0.00000000000000E+00  -6.97841226946292E-14
     -3.17201474350224E-10  -3.17271258472919E-10  -7.00935885020510E-18   1.56000000000000E-01   1.56000000000000E-01
      0.00000000000000E+00   0.00000000000000E+00   0.00000000000000E+00   0.00000000000000E+00   0.00000000000000E+00
      1.06496946785546E-16   8.00000000000000E-02   8.00000000000000E-02   0.00000000000000E+00   0.00000000000000E+00
      3.17264996060075E-10   6.26241284384854E-15   3.17271258472919E-10   1.58750101598080E-17   3.00000000000000E-02
      3.00000000000000E-02   0.00000000000000E+00   0.00000000000000E+00   0.00000000000000E+00   0.00000000000000E+00
      0.00000000000000E+00  -1.15362598095149E-16
      4.05000000000000E-01
      0.00000000000000E+00   0.00000000000000E+00   0.00000000000000E+00   0.00000000000000E+00  -7.08430287464074E-14
     -3.25717779569619E-10  -3.25788622598365E-10  -7.08732445832736E-18   1.62000000000000E-01   1.62000000000000E-01
      0.00000000000000E+00   0.00000000000000E+00   0.00000000000000E+00   0.00000000000000E+00   0.00000000000000E+00
      1.08208149358109E-16   8.00000000000000E-02   8.00000000000000E-02   0.00000000000000E+00   0.00000000000000E+00
      3.25782401642362E-10   6.22095600264955E-15   3.25788622598365E-10   1.58090833305767E-17   3.00000000000000E-02
      3.00000000000000E-02   0.00000000000000E+00   0.00000000000000E+00   0.00000000000000E+00   0.00000000000000E+00
      0.00000000000000E+00  -1.16929908230359E-16
      4.20000000000000E-01
      0.00000000000000E+00   0.00000000000000E+00   0.00000000000000E+00   0.00000000000000E+00  -7.18988482935274E-14
     -3.34569993829296E-10  -3.34641892677589E-10  -7.16483903359841E-18   1.68000000000000E-01   1.68000000000000E-01
      0.00000000000000E+00   0.00000000000000E+00   0.00000000000000E+00   0.00000000000000E+00   0.00000000000000E+00
      1.09919059780630E-16   8.00000000000000E-02   8.00000000000000E-02   0.00000000000000E+00   0.00000000000000E+00
      3.34635713368357E-10   6.17930923150849E-15   3.34641892677589E-10   1.57433036633554E-17   3.00000000000000E-02
      3.00000000000000E-02   0.00000000000000E+00   0.00000000000000E+00   0.00000000000000E+00   0.00000000000000E+00
      0.00000000000000E+00  -1.18497524410387E-16
      4.35000000000000E-01
      0.00000000000000E+00   0.00000000000000E+00   0.00000000000000E+00   0.00000000000000E+00  -7.29512061942951E-14
     -3.43775299849596E-10  -3.43848251055790E-10  -7.24191720409789E-18   1.74000000000000E-01   1.74000000000000E-01
      0.00000000000000E+00   0.00000000000000E+00   0.00000000000000E+00   0.00000000000000E+00   0.00000000000000E+00
      1.11629692367972E-16   8.00000000000000E-02   8.00000000000000E-02   0.00000000000000E+00   0.00000000000000E+00
      3.43842113559305E-10   6.13749648489637E-15   3.43848251055790E-10   1.56776560445904E-17   3.00000000000000E-02
      3.00000000000000E-02   0.00000000000000E+00   0.00000000000000E+00   0.00000000000000E+00   0.00000000000000E+00
      0.00000000000000E+00  -1.20065431208465E-16
      4.50000000000000E-01
      0.00000000000000E+00   0.00000000000000E+00   0.00000000000000E+00   0.00000000000000E+00  -7.39998182550039E-14
     -3.53352951733743E-10  -3.53426951551998E-10  -7.31857317741896E-18   1.80000000000000E-01   1.80000000000000E-01
      0.00000000000000E+00   0.00000000000000E+00   0.00000000000000E+00   0.00000000000000E+00   0.00000000000000E+00
      1.13340060553745E-16   8.00000000000000E-02   8.00000000000000E-02   0.00000000000000E+00   0.00000000000000E+00
      3.53420856000424E-10   6.09555157335595E-15   3.53426951551997E-10   1.56121267882953E-17   3.00000000000000E-02
      3.00000000000000E-02   0.00000000000000E+00   0.00000000000000E+00   0.00000000000000E+00   0.00000000000000E+00
      0.00000000000000E+00  -1.21633614164621E-16
      4.65000000000000E-01
      0.00000000000000E+00   0.00000000000000E+00   0.00000000000000E+00   0.00000000000000E+00  -7.50445007955093E-14
     -3.63324578205955E-10  -3.63399622706751E-10  -7.39482074650092E-18   1.86000000000000E-01   1.86000000000000E-01
      0.00000000000000E+00   0.00000000000000E+00   0.00000000000000E+00   0.00000000000000E+00   0.00000000000000E+00
      1.15050176959949E-16   8.00000000000000E-02   8.00000000000000E-02   0.00000000000000E+00   0.00000000000000E+00
      3.63393569209795E-10   6.05349695609797E-15   3.63399622706751E-10   1.55467034964724E-17   3.00000000000000E-02
      3.00000000000000E-02   0.00000000000000E+00   0.00000000000000E+00   0.00000000000000E+00   0.00000000000000E+00
      0.00000000000000E+00  -1.23202059709920E-16
      4.80000000000000E-01
      0.00000000000000E+00   0.00000000000000E+00   0.00000000000000E+00   0.00000000000000E+00  -7.60851788341410E-14
     -3.73714531689572E-10  -3.73790616868406E-10  -7.47067329607456E-18   1.92000000000000E-01   1.92000000000000E-01
      0.00000000000000E+00   0.00000000000000E+00   0.00000000000000E+00   0.00000000000000E+00   0.00000000000000E+00
      1.16760053460301E-16   8.00000000000000E-02   8.00000000000000E-02   0.00000000000000E+00   0.00000000000000E+00
      3.73784605555987E-10   6.01131241912550E-15   3.73790616868406E-10   1.54813749331820E-17   3.00000000000000E-02
      3.00000000000000E-02   0.00000000000000E+00   0.00000000000000E+00   0.00000000000000E+00   0.00000000000000E+00
      0.00000000000000E+00  -1.24770755097409E-16
      4.95000000000000E-01
      0.00000000000000E+00   0.00000000000000E+00   0.00000000000000E+00   0.00000000000000E+00  -7.71218927949360E-14
     -3.84550288955152E-10  -3.84627410847947E-10  -7.54614380962450E-18   1.98000000000000E-01   1.98000000000000E-01
      0.00000000000000E+00   0.00000000000000E+00   0.00000000000000E+00   0.00000000000000E+00   0.00000000000000E+00
      1.18469701237837E-16   8.00000000000000E-02   8.00000000000000E-02   0.00000000000000E+00   0.00000000000000E+00
      3.84621441863467E-10   5.96898448023260E-15   3.84627410847947E-10   1.54161309109161E-17   3.00000000000000E-02
      3.00000000000000E-02   0.00000000000000E+00   0.00000000000000E+00   0.00000000000000E+00   0.00000000000000E+00
      0.00000000000000E+00  -1.26339688339128E-16
      5.10000000000000E-01
      0.00000000000000E+00   0.00000000000000E+00   0.00000000000000E+00   0.00000000000000E+00  -7.81548036660939E-14
     -3.95862909367248E-10  -3.95941064170914E-10  -7.62124487678344E-18   2.04000000000000E-01   2.04000000000000E-01
      0.00000000000000E+00   0.00000000000000E+00   0.00000000000000E+00   0.00000000000000E+00   0.00000000000000E+00
      1.20179130837356E-16   8.00000000000000E-02   8.00000000000000E-02   0.00000000000000E+00   0.00000000000000E+00
      3.95935137605113E-10   5.92656580106290E-15   3.95941064170914E-10   1.53509621880654E-17   3.00000000000000E-02
      3.00000000000000E-02   0.00000000000000E+00   0.00000000000000E+00   0.00000000000000E+00   0.00000000000000E+00
      0.00000000000000E+00  -1.27908848148637E-16
      5.25000000000000E-01
      0.00000000000000E+00   0.00000000000000E+00   0.00000000000000E+00   0.00000000000000E+00  -7.91841965621708E-14
     -4.07687557062165E-10  -4.07766741258727E-10  -7.69598870108157E-18   2.10000000000000E-01   2.10000000000000E-01
      0.00000000000000E+00   0.00000000000000E+00   0.00000000000000E+00   0.00000000000000E+00   0.00000000000000E+00
      1.21888352213210E-16   8.00000000000000E-02   8.00000000000000E-02   0.00000000000000E+00   0.00000000000000E+00
      4.07760857240460E-10   5.88401826780928E-15   4.07766741258727E-10   1.52858603763894E-17   3.00000000000000E-02
      3.00000000000000E-02   0.00000000000000E+00   0.00000000000000E+00   0.00000000000000E+00   0.00000000000000E+00
      0.00000000000000E+00  -1.29478223888518E-16
      5.40000000000000E-01
      0.00000000000000E+00   0.00000000000000E+00   0.00000000000000E+00   0.00000000000000E+00  -8.02104826652891E-14
     -4.20064094584053E-10  -4.20144305066719E-10  -7.77038710798392E-18   2.16000000000000E-01   2.16000000000000E-01
      0.00000000000000E+00   0.00000000000000E+00   0.00000000000000E+00   0.00000000000000E+00   0.00000000000000E+00
      1.23597374772883E-16   8.00000000000000E-02   8.00000000000000E-02   0.00000000000000E+00   0.00000000000000E+00
      4.20138463711302E-10   5.84135541703047E-15   4.20144305066719E-10   1.52208178575027E-17   3.00000000000000E-02
      3.00000000000000E-02   0.00000000000000E+00   0.00000000000000E+00   0.00000000000000E+00   0.00000000000000E+00
      0.00000000000000E+00  -1.31047805522402E-16
      5.55000000000000E-01
      0.00000000000000E+00   0.00000000000000E+00   0.00000000000000E+00   0.00000000000000E+00  -8.12341995408517E-14