DF-ISE text

Info {
  version   = 1.0
  type      = xyplot
  datasets  = [
    "time"
    "source OuterVoltage" "source InnerVoltage" "source QuasiFermiPotential" "source DisplacementCurrent" "source eCurrent"
    "source hCurrent" "source TotalCurrent" "source Charge" "topGate OuterVoltage" "topGate InnerVoltage"
    "topGate QuasiFermiPotential" "topGate DisplacementCurrent" "topGate eCurrent" "topGate hCurrent" "topGate TotalCurrent"
    "topGate Charge" "drain OuterVoltage" "drain InnerVoltage" "drain QuasiFermiPotential" "drain DisplacementCurrent"
    "drain eCurrent" "drain hCurrent" "drain TotalCurrent" "drain Charge" "bottomGate OuterVoltage"
    "bottomGate InnerVoltage" "bottomGate QuasiFermiPotential" "bottomGate DisplacementCurrent" "bottomGate eCurrent" "bottomGate hCurrent"
    "bottomGate TotalCurrent" "bottomGate Charge" ]
  functions = [
    Time
    OuterVoltage InnerVoltage QuasiFermiPotential DisplacementCurrent eCurrent
    hCurrent TotalCurrent Charge OuterVoltage InnerVoltage
    QuasiFermiPotential DisplacementCurrent eCurrent hCurrent TotalCurrent
    Charge OuterVoltage InnerVoltage QuasiFermiPotential DisplacementCurrent
    eCurrent hCurrent TotalCurrent Charge OuterVoltage
    InnerVoltage QuasiFermiPotential DisplacementCurrent eCurrent hCurrent
    TotalCurrent Charge ]
}

Data {
      1.50000000000000E-02
      0.00000000000000E+00   0.00000000000000E+00   0.00000000000000E+00   0.00000000000000E+00  -1.89613268516977E-13
     -3.53914255617105E-11  -3.55810388302274E-11  -1.19946252048422E-17   6.00000000000000E-03   6.00000000000000E-03
      0.00000000000000E+00   0.00000000000000E+00   0.00000000000000E+00   0.00000000000000E+00   0.00000000000000E+00
     -3.09349881935927E-17   3.50000000000000E-01   3.50000000000000E-01   0.00000000000000E+00   0.00000000000000E+00
      3.55737569408637E-11   7.28188936374302E-15   3.55810388302274E-11   1.70341085509453E-17   1.10000000000000E-01
      1.10000000000000E-01   0.00000000000000E+00   0.00000000000000E+00   0.00000000000000E+00   0.00000000000000E+00
      0.00000000000000E+00   2.58955048474896E-17
      3.00000000000000E-02
      0.00000000000000E+00   0.00000000000000E+00   0.00000000000000E+00   0.00000000000000E+00  -1.91515317052438E-13
     -3.17081037612310E-11  -3.18996190782834E-11  -1.20601463650738E-17   1.20000000000000E-02   1.20000000000000E-02
      0.00000000000000E+00   0.00000000000000E+00   0.00000000000000E+00   0.00000000000000E+00   0.00000000000000E+00
     -2.92308214237356E-17   3.50000000000000E-01   3.50000000000000E-01   0.00000000000000E+00   0.00000000000000E+00
      3.18923687212252E-11   7.25035705822648E-15   3.18996190782834E-11   1.69699784817506E-17   1.10000000000000E-01
      1.10000000000000E-01   0.00000000000000E+00   0.00000000000000E+00   0.00000000000000E+00   0.00000000000000E+00
      0.00000000000000E+00   2.43209893070588E-17
      4.50000000000000E-02
      0.00000000000000E+00   0.00000000000000E+00   0.00000000000000E+00   0.00000000000000E+00  -1.93422753291555E-13
     -2.84080234961514E-11  -2.86014462494429E-11  -1.21256245352549E-17   1.80000000000000E-02   1.80000000000000E-02
      0.00000000000000E+00   0.00000000000000E+00   0.00000000000000E+00   0.00000000000000E+00   0.00000000000000E+00
     -2.75266731255517E-17   3.50000000000000E-01   3.50000000000000E-01   0.00000000000000E+00   0.00000000000000E+00
      2.85942289817390E-11   7.21726770397798E-15   2.86014462494430E-11   1.69058423615774E-17   1.10000000000000E-01
      1.10000000000000E-01   0.00000000000000E+00   0.00000000000000E+00   0.00000000000000E+00   0.00000000000000E+00
      0.00000000000000E+00   2.27464552992292E-17
      6.00000000000000E-02
      0.00000000000000E+00   0.00000000000000E+00   0.00000000000000E+00   0.00000000000000E+00  -1.95335491116941E-13
     -2.54551704920736E-11  -2.56505059831906E-11  -1.21910609822300E-17   2.40000000000000E-02   2.40000000000000E-02
      0.00000000000000E+00   0.00000000000000E+00   0.00000000000000E+00   0.00000000000000E+00   0.00000000000000E+00
     -2.58225425947923E-17   3.50000000000000E-01   3.50000000000000E-01   0.00000000000000E+00   0.00000000000000E+00
      2.56433231788654E-11   7.18280432512471E-15   2.56505059831906E-11   1.68417000493250E-17   1.10000000000000E-01
      1.10000000000000E-01   0.00000000000000E+00   0.00000000000000E+00   0.00000000000000E+00   0.00000000000000E+00
      0.00000000000000E+00   2.11719035276973E-17
      7.50000000000000E-02
      0.00000000000000E+00   0.00000000000000E+00   0.00000000000000E+00   0.00000000000000E+00  -1.97253445516374E-13
     -2.28164860177374E-11  -2.30137394632538E-11  -1.22564569308265E-17   3.00000000000000E-02   3.00000000000000E-02
      0.00000000000000E+00   0.00000000000000E+00   0.00000000000000E+00   0.00000000000000E+00   0.00000000000000E+00
     -2.41184291468327E-17   3.50000000000000E-01   3.50000000000000E-01   0.00000000000000E+00   0.00000000000000E+00
      2.30065923337462E-11   7.14712950755895E-15   2.30137394632538E-11   1.67775514010555E-17   1.10000000000000E-01
      1.10000000000000E-01   0.00000000000000E+00   0.00000000000000E+00   0.00000000000000E+00   0.00000000000000E+00
      0.00000000000000E+00   1.95973346766037E-17
      9.00000000000000E-02
      0.00000000000000E+00   0.00000000000000E+00   0.00000000000000E+00   0.00000000000000E+00  -1.99176532607991E-13
     -2.04616767828497E-11  -2.06608533154577E-11  -1.23218135653533E-17   3.60000000000000E-02   3.60000000000000E-02
      0.00000000000000E+00   0.00000000000000E+00   0.00000000000000E+00   0.00000000000000E+00   0.00000000000000E+00
     -2.24143321158279E-17   3.50000000000000E-01   3.50000000000000E-01   0.00000000000000E+00   0.00000000000000E+00
      2.06537429279116E-11   7.11038754609525E-15   2.06608533154577E-11   1.67133962698115E-17   1.10000000000000E-01
      1.10000000000000E-01   0.00000000000000E+00   0.00000000000000E+00   0.00000000000000E+00   0.00000000000000E+00
      0.00000000000000E+00   1.80227494113697E-17
      1.05000000000000E-01
      0.00000000000000E+00   0.00000000000000E+00   0.00000000000000E+00   0.00000000000000E+00  -2.01104669659806E-13
     -1.83630330416758E-11  -1.85641377113356E-11  -1.23871320310452E-17   4.20000000000000E-02   4.20000000000000E-02
      0.00000000000000E+00   0.00000000000000E+00   0.00000000000000E+00   0.00000000000000E+00   0.00000000000000E+00
     -2.07102508538969E-17   3.50000000000000E-01   3.50000000000000E-01   0.00000000000000E+00   0.00000000000000E+00
      1.85570650048813E-11   7.07270645429984E-15   1.85641377113356E-11   1.66492345054376E-17   1.10000000000000E-01
      1.10000000000000E-01   0.00000000000000E+00   0.00000000000000E+00   0.00000000000000E+00   0.00000000000000E+00
      0.00000000000000E+00   1.64481483795045E-17
      1.20000000000000E-01
      0.00000000000000E+00   0.00000000000000E+00   0.00000000000000E+00   0.00000000000000E+00  -2.03037775104296E-13
     -1.64952549435622E-11  -1.66982927186665E-11  -1.24524134354539E-17   4.80000000000000E-02   4.80000000000000E-02
      0.00000000000000E+00   0.00000000000000E+00   0.00000000000000E+00   0.00000000000000E+00   0.00000000000000E+00
     -1.90061847303377E-17   3.50000000000000E-01   3.50000000000000E-01   0.00000000000000E+00   0.00000000000000E+00
      1.66912585189672E-11   7.03419969930070E-15   1.66982927186665E-11   1.65850659544057E-17   1.10000000000000E-01
      1.10000000000000E-01   0.00000000000000E+00   0.00000000000000E+00   0.00000000000000E+00   0.00000000000000E+00
      0.00000000000000E+00   1.48735322113859E-17
      1.35000000000000E-01
      0.00000000000000E+00   0.00000000000000E+00   0.00000000000000E+00   0.00000000000000E+00  -2.04975768548724E-13
     -1.48352871591144E-11  -1.50402629276631E-11  -1.25176588497877E-17   5.40000000000000E-02   5.40000000000000E-02
      0.00000000000000E+00   0.00000000000000E+00   0.00000000000000E+00   0.00000000000000E+00   0.00000000000000E+00
     -1.73021331308673E-17   3.50000000000000E-01   3.50000000000000E-01   0.00000000000000E+00   0.00000000000000E+00
      1.50332679598319E-11   6.99496783124389E-15   1.50402629276631E-11   1.65208904596424E-17   1.10000000000000E-01
      1.10000000000000E-01   0.00000000000000E+00   0.00000000000000E+00   0.00000000000000E+00   0.00000000000000E+00
      0.00000000000000E+00   1.32989015210125E-17
      1.50000000000000E-01
      0.00000000000000E+00   0.00000000000000E+00   0.00000000000000E+00   0.00000000000000E+00  -2.06918570781780E-13
     -1.33621617981372E-11  -1.35690803689189E-11  -1.25828693102012E-17   6.00000000000000E-02   6.00000000000000E-02
      0.00000000000000E+00   0.00000000000000E+00   0.00000000000000E+00   0.00000000000000E+00   0.00000000000000E+00
     -1.55980954568898E-17   3.50000000000000E-01   3.50000000000000E-01   0.00000000000000E+00   0.00000000000000E+00
      1.35621252690361E-11   6.95509988279346E-15   1.35690803689189E-11   1.64567078603586E-17   1.10000000000000E-01
      1.10000000000000E-01   0.00000000000000E+00   0.00000000000000E+00   0.00000000000000E+00   0.00000000000000E+00
      0.00000000000000E+00   1.17242569067324E-17
      1.65000000000000E-01
      0.00000000000000E+00   0.00000000000000E+00   0.00000000000000E+00   0.00000000000000E+00  -2.08866103777019E-13
     -1.20568496239412E-11  -1.22657157277183E-11  -1.26480458190387E-17   6.60000000000000E-02   6.60000000000000E-02
      0.00000000000000E+00   0.00000000000000E+00   0.00000000000000E+00   0.00000000000000E+00   0.00000000000000E+00
     -1.38940711247876E-17   3.50000000000000E-01   3.50000000000000E-01   0.00000000000000E+00   0.00000000000000E+00
      1.22588010530367E-11   6.91467468158507E-15   1.22657157277183E-11   1.63925179918795E-17   1.10000000000000E-01
      1.10000000000000E-01   0.00000000000000E+00   0.00000000000000E+00   0.00000000000000E+00   0.00000000000000E+00
      0.00000000000000E+00   1.01495989519467E-17
      1.80000000000000E-01
      0.00000000000000E+00   0.00000000000000E+00   0.00000000000000E+00   0.00000000000000E+00  -2.10818290693518E-13
     -1.09021195572417E-11  -1.11129378479352E-11  -1.27131893460302E-17   7.20000000000000E-02   7.20000000000000E-02
      0.00000000000000E+00   0.00000000000000E+00   0.00000000000000E+00   0.00000000000000E+00   0.00000000000000E+00
     -1.21900595652360E-17   3.50000000000000E-01   3.50000000000000E-01   0.00000000000000E+00   0.00000000000000E+00
      1.11060640859712E-11   6.87376196397302E-15   1.11129378479352E-11   1.63283206854751E-17   1.10000000000000E-01
      1.10000000000000E-01   0.00000000000000E+00   0.00000000000000E+00   0.00000000000000E+00   0.00000000000000E+00
      0.00000000000000E+00   8.57492822579110E-18
      1.95000000000000E-01
      0.00000000000000E+00   0.00000000000000E+00   0.00000000000000E+00   0.00000000000000E+00  -2.12775055874137E-13
     -9.88240645275843E-12  -1.00951815086326E-11  -1.27783008294445E-17   7.80000000000000E-02   7.80000000000000E-02
      0.00000000000000E+00   0.00000000000000E+00   0.00000000000000E+00   0.00000000000000E+00   0.00000000000000E+00
     -1.04860602225408E-17   3.50000000000000E-01   3.50000000000000E-01   0.00000000000000E+00   0.00000000000000E+00
      1.00883490851967E-11   6.83242343591054E-15   1.00951815086326E-11   1.62641157681900E-17   1.10000000000000E-01
      1.10000000000000E-01   0.00000000000000E+00   0.00000000000000E+00   0.00000000000000E+00   0.00000000000000E+00
      0.00000000000000E+00   7.00024528379536E-18
      2.10000000000000E-01
      0.00000000000000E+00   0.00000000000000E+00   0.00000000000000E+00   0.00000000000000E+00  -2.14736324841661E-13
     -8.98368712181020E-12  -9.19842344665186E-12  -1.28433811771987E-17   8.40000000000000E-02   8.40000000000000E-02
      0.00000000000000E+00   0.00000000000000E+00   0.00000000000000E+00   0.00000000000000E+00   0.00000000000000E+00
     -8.78207255399573E-18   3.50000000000000E-01   3.50000000000000E-01   0.00000000000000E+00   0.00000000000000E+00
      9.19163273299042E-12   6.79071366144530E-15   9.19842344665186E-12   1.61999030626719E-17   1.10000000000000E-01
      1.10000000000000E-01   0.00000000000000E+00   0.00000000000000E+00   0.00000000000000E+00   0.00000000000000E+00
      0.00000000000000E+00   5.42555066852252E-18
      2.25000000000000E-01
      0.00000000000000E+00   0.00000000000000E+00   0.00000000000000E+00   0.00000000000000E+00  -2.16702024293119E-13
     -8.19336456577407E-12  -8.41006659006719E-12  -1.29084312679275E-17   9.00000000000000E-02   9.00000000000000E-02
      0.00000000000000E+00   0.00000000000000E+00   0.00000000000000E+00   0.00000000000000E+00   0.00000000000000E+00
     -7.07809602926021E-18   3.50000000000000E-01   3.50000000000000E-01   0.00000000000000E+00   0.00000000000000E+00
      8.40331790917234E-12   6.74868089484758E-15   8.41006659006719E-12   1.61356823869993E-17   1.10000000000000E-01
      1.10000000000000E-01   0.00000000000000E+00   0.00000000000000E+00   0.00000000000000E+00   0.00000000000000E+00
      0.00000000000000E+00   3.85084491018848E-18
      2.40000000000000E-01
      0.00000000000000E+00   0.00000000000000E+00   0.00000000000000E+00   0.00000000000000E+00  -2.18672082092496E-13
     -7.50016037740895E-12  -7.71883245950145E-12  -1.29734519520126E-17   9.60000000000000E-02   9.60000000000000E-02
      0.00000000000000E+00   0.00000000000000E+00   0.00000000000000E+00   0.00000000000000E+00   0.00000000000000E+00
     -5.37413012975609E-18   3.50000000000000E-01   3.50000000000000E-01   0.00000000000000E+00   0.00000000000000E+00
      7.71212609169518E-12   6.70636780627190E-15   7.71883245950145E-12   1.60714535545056E-17   1.10000000000000E-01
      1.10000000000000E-01   0.00000000000000E+00   0.00000000000000E+00   0.00000000000000E+00   0.00000000000000E+00
      0.00000000000000E+00   2.27612852726309E-18
      2.55000000000000E-01
      0.00000000000000E+00   0.00000000000000E+00   0.00000000000000E+00   0.00000000000000E+00  -2.20646427262020E-13
     -6.89401526040433E-12  -7.11466168766635E-12  -1.30384440525739E-17   1.02000000000000E-01   1.02000000000000E-01
      0.00000000000000E+00   0.00000000000000E+00   0.00000000000000E+00   0.00000000000000E+00   0.00000000000000E+00
     -3.67017434808182E-18   3.50000000000000E-01   3.50000000000000E-01   0.00000000000000E+00   0.00000000000000E+00
      7.10799787554099E-12   6.66381212535727E-15   7.11466168766635E-12   1.60072163736018E-17   1.10000000000000E-01
      1.10000000000000E-01   0.00000000000000E+00   0.00000000000000E+00   0.00000000000000E+00   0.00000000000000E+00
      0.00000000000000E+00   7.01402027053842E-19
      2.70000000000000E-01
      0.00000000000000E+00   0.00000000000000E+00   0.00000000000000E+00   0.00000000000000E+00  -2.22624989972207E-13
     -6.36599761181640E-12  -6.58862260178861E-12  -1.31034083664249E-17   1.08000000000000E-01   1.08000000000000E-01
      0.00000000000000E+00   0.00000000000000E+00   0.00000000000000E+00   0.00000000000000E+00   0.00000000000000E+00
     -1.96622818744366E-18   3.50000000000000E-01   3.50000000000000E-01   0.00000000000000E+00   0.00000000000000E+00
      6.58200155456626E-12   6.62104722235002E-15   6.58862260178861E-12   1.59429706475957E-17   1.10000000000000E-01
      1.10000000000000E-01   0.00000000000000E+00   0.00000000000000E+00   0.00000000000000E+00   0.00000000000000E+00
      0.00000000000000E+00  -8.73334093727143E-19
      2.85000000000000E-01
      0.00000000000000E+00   0.00000000000000E+00   0.00000000000000E+00   0.00000000000000E+00  -2.24607701530771E-13
     -5.90822010737461E-12  -6.13282780890538E-12  -1.31683456649921E-17   1.14000000000000E-01   1.14000000000000E-01
      0.00000000000000E+00   0.00000000000000E+00   0.00000000000000E+00   0.00000000000000E+00   0.00000000000000E+00
     -2.62291161102755E-19   3.50000000000000E-01   3.50000000000000E-01   0.00000000000000E+00   0.00000000000000E+00
      6.12624970629147E-12   6.57810261391475E-15   6.13282780890538E-12   1.58787161745067E-17   1.10000000000000E-01
      1.10000000000000E-01   0.00000000000000E+00   0.00000000000000E+00   0.00000000000000E+00   0.00000000000000E+00
      0.00000000000000E+00  -2.44807934841180E-18
      3.00000000000000E-01
      0.00000000000000E+00   0.00000000000000E+00   0.00000000000000E+00   0.00000000000000E+00  -2.26594494370528E-13
     -5.51376422607039E-12  -5.74035872044091E-12  -1.32332566952007E-17   1.20000000000000E-01   1.20000000000000E-01
      0.00000000000000E+00   0.00000000000000E+00   0.00000000000000E+00   0.00000000000000E+00   0.00000000000000E+00
      1.44163720816271E-18   3.50000000000000E-01   3.50000000000000E-01   0.00000000000000E+00   0.00000000000000E+00
      5.73382371602233E-12   6.53500441857748E-15   5.74035872044091E-12   1.58144527468777E-17   1.10000000000000E-01
      1.10000000000000E-01   0.00000000000000E+00   0.00000000000000E+00   0.00000000000000E+00   0.00000000000000E+00
      0.00000000000000E+00  -4.02283325983965E-18
      3.15000000000000E-01
      0.00000000000000E+00   0.00000000000000E+00   0.00000000000000E+00   0.00000000000000E+00  -2.28585302036382E-13
     -5.17661264784666E-12  -5.40519794988304E-12  -1.32981421803276E-17   1.26000000000000E-01   1.26000000000000E-01
      0.00000000000000E+00   0.00000000000000E+00   0.00000000000000E+00   0.00000000000000E+00   0.00000000000000E+00
      3.14555738858128E-18   3.50000000000000E-01   3.50000000000000E-01   0.00000000000000E+00   0.00000000000000E+00
      5.39870617412465E-12   6.49177575838816E-15   5.40519794988304E-12   1.57501801515817E-17   1.10000000000000E-01
      1.10000000000000E-01   0.00000000000000E+00   0.00000000000000E+00   0.00000000000000E+00   0.00000000000000E+00
      0.00000000000000E+00  -5.59759535983532E-18
      3.30000000000000E-01
      0.00000000000000E+00   0.00000000000000E+00   0.00000000000000E+00   0.00000000000000E+00  -2.30580059171441E-13
     -4.89158945666581E-12  -5.12216951583725E-12  -1.33630028208234E-17   1.32000000000000E-01   1.32000000000000E-01
      0.00000000000000E+00   0.00000000000000E+00   0.00000000000000E+00   0.00000000000000E+00   0.00000000000000E+00
      4.84946983989849E-18   3.50000000000000E-01   3.50000000000000E-01   0.00000000000000E+00   0.00000000000000E+00
      5.11572107872459E-12   6.44843711266066E-15   5.12216951583725E-12   1.56858981696242E-17   1.10000000000000E-01
      1.10000000000000E-01   0.00000000000000E+00   0.00000000000000E+00   0.00000000000000E+00   0.00000000000000E+00
      0.00000000000000E+00  -7.17236518869927E-18
      3.45000000000000E-01
      0.00000000000000E+00   0.00000000000000E+00   0.00000000000000E+00   0.00000000000000E+00  -2.32578701502340E-13
     -4.65430808068056E-12  -4.88688678218290E-12  -1.34278392951035E-17   1.38000000000000E-01   1.38000000000000E-01
      0.00000000000000E+00   0.00000000000000E+00   0.00000000000000E+00   0.00000000000000E+00   0.00000000000000E+00
      6.55337501387471E-18   3.50000000000000E-01   3.50000000000000E-01   0.00000000000000E+00   0.00000000000000E+00
      4.88048177554964E-12   6.40500663325396E-15   4.88688678218290E-12   1.56216065759398E-17   1.10000000000000E-01
      1.10000000000000E-01   0.00000000000000E+00   0.00000000000000E+00   0.00000000000000E+00   0.00000000000000E+00
      0.00000000000000E+00  -8.74714229471101E-18
      3.60000000000000E-01
      0.00000000000000E+00   0.00000000000000E+00   0.00000000000000E+00   0.00000000000000E+00  -2.34581165823787E-13
     -4.46112690161152E-12  -4.69570806743531E-12  -1.34926522603106E-17   1.44000000000000E-01   1.44000000000000E-01
      0.00000000000000E+00   0.00000000000000E+00   0.00000000000000E+00   0.00000000000000E+00   0.00000000000000E+00
      8.25727335477116E-18   3.50000000000000E-01   3.50000000000000E-01   0.00000000000000E+00   0.00000000000000E+00
      4.68934656701575E-12   6.36150041956284E-15   4.69570806743531E-12   1.55573051391834E-17   1.10000000000000E-01
      1.10000000000000E-01   0.00000000000000E+00   0.00000000000000E+00   0.00000000000000E+00   0.00000000000000E+00
      0.00000000000000E+00  -1.03219262336439E-17
      3.75000000000000E-01
      0.00000000000000E+00   0.00000000000000E+00   0.00000000000000E+00   0.00000000000000E+00  -2.36587389982370E-13
     -4.30911246673840E-12  -4.54569985672077E-12  -1.35574423530488E-17   1.50000000000000E-01   1.50000000000000E-01
      0.00000000000000E+00   0.00000000000000E+00   0.00000000000000E+00   0.00000000000000E+00   0.00000000000000E+00
      9.96116529982479E-18   3.50000000000000E-01   3.50000000000000E-01   0.00000000000000E+00   0.00000000000000E+00
      4.53938192395613E-12   6.31793276463308E-15   4.54569985672077E-12   1.54929936215151E-17   1.10000000000000E-01
      1.10000000000000E-01   0.00000000000000E+00   0.00000000000000E+00   0.00000000000000E+00   0.00000000000000E+00
      0.00000000000000E+00  -1.18967165682910E-17
      3.90000000000000E-01
      0.00000000000000E+00   0.00000000000000E+00   0.00000000000000E+00   0.00000000000000E+00  -2.38597312859611E-13
     -4.19601023902719E-12  -4.43460755188680E-12  -1.36222101900912E-17   1.56000000000000E-01   1.56000000000000E-01
      0.00000000000000E+00   0.00000000000000E+00   0.00000000000000E+00   0.00000000000000E+00   0.00000000000000E+00
      1.16650512797130E-17   3.50000000000000E-01   3.50000000000000E-01   0.00000000000000E+00   0.00000000000000E+00
      4.42833323551747E-12   6.27431636932657E-15   4.43460755188680E-12   1.54286717783794E-17   1.10000000000000E-01
      1.10000000000000E-01   0.00000000000000E+00   0.00000000000000E+00   0.00000000000000E+00   0.00000000000000E+00
      0.00000000000000E+00  -1.34715128680011E-17
      4.05000000000000E-01
      0.00000000000000E+00   0.00000000000000E+00   0.00000000000000E+00   0.00000000000000E+00  -2.40610874354275E-13
     -4.12022282382354E-12  -4.36083369817781E-12  -1.36869563690612E-17   1.62000000000000E-01   1.62000000000000E-01
      0.00000000000000E+00   0.00000000000000E+00   0.00000000000000E+00   0.00000000000000E+00   0.00000000000000E+00
      1.33689317190085E-17   3.50000000000000E-01   3.50000000000000E-01   0.00000000000000E+00   0.00000000000000E+00
      4.35460303564766E-12   6.23066253015695E-15   4.36083369817782E-12   1.53643393582768E-17   1.10000000000000E-01
      1.10000000000000E-01   0.00000000000000E+00   0.00000000000000E+00   0.00000000000000E+00   0.00000000000000E+00
      0.00000000000000E+00  -1.50463147082241E-17
      4.20000000000000E-01
      0.00000000000000E+00   0.00000000000000E+00   0.00000000000000E+00   0.00000000000000E+00  -2.42628015363928E-13
     -4.08079561413727E-12  -4.32342362950120E-12  -1.37516814690887E-17   1.68000000000000E-01   1.68000000000000E-01
      0.00000000000000E+00   0.00000000000000E+00   0.00000000000000E+00   0.00000000000000E+00   0.00000000000000E+00
      1.50728070366256E-17   3.50000000000000E-01   3.50000000000000E-01   0.00000000000000E+00   0.00000000000000E+00
      4.31723664819184E-12   6.18698130935280E-15   4.32342362950119E-12   1.52999961025287E-17   1.10000000000000E-01
      1.10000000000000E-01   0.00000000000000E+00   0.00000000000000E+00   0.00000000000000E+00   0.00000000000000E+00
      0.00000000000000E+00  -1.66211216700656E-17
      4.35000000000000E-01
      0.00000000000000E+00   0.00000000000000E+00   0.00000000000000E+00   0.00000000000000E+00  -2.44648677765678E-13
     -4.07740980072475E-12  -4.32205847849043E-12  -1.38163860514428E-17   1.74000000000000E-01   1.74000000000000E-01
      0.00000000000000E+00   0.00000000000000E+00   0.00000000000000E+00   0.00000000000000E+00   0.00000000000000E+00
      1.67766776462580E-17   3.50000000000000E-01   3.50000000000000E-01   0.00000000000000E+00   0.00000000000000E+00
      4.31591519681344E-12   6.14328167699273E-15   4.32205847849044E-12   1.52356417450344E-17   1.10000000000000E-01
      1.10000000000000E-01   0.00000000000000E+00   0.00000000000000E+00   0.00000000000000E+00   0.00000000000000E+00
      0.00000000000000E+00  -1.81959333398496E-17
      4.50000000000000E-01
      0.00000000000000E+00   0.00000000000000E+00   0.00000000000000E+00   0.00000000000000E+00  -2.46672804396106E-13
     -4.11038269791844E-12  -4.35705550231455E-12  -1.38810706601410E-17   1.80000000000000E-01   1.80000000000000E-01
      0.00000000000000E+00   0.00000000000000E+00   0.00000000000000E+00   0.00000000000000E+00   0.00000000000000E+00
      1.84805439568089E-17   3.50000000000000E-01   3.50000000000000E-01   0.00000000000000E+00   0.00000000000000E+00
      4.35095593067227E-12   6.09957164228418E-15   4.35705550231455E-12   1.51712760120206E-17   1.10000000000000E-01
      1.10000000000000E-01   0.00000000000000E+00   0.00000000000000E+00   0.00000000000000E+00   0.00000000000000E+00
      0.00000000000000E+00  -1.97707493086885E-17
      4.65000000000000E-01
      0.00000000000000E+00   0.00000000000000E+00   0.00000000000000E+00   0.00000000000000E+00  -2.48700339030283E-13
     -4.18067534125751E-12  -4.42937568028780E-12  -1.39457358225363E-17   1.86000000000000E-01   1.86000000000000E-01
      0.00000000000000E+00   0.00000000000000E+00   0.00000000000000E+00   0.00000000000000E+00   0.00000000000000E+00
      2.01844063728144E-17   3.50000000000000E-01   3.50000000000000E-01   0.00000000000000E+00   0.00000000000000E+00
      4.42331982192565E-12   6.05585836214392E-15   4.42937568028780E-12   1.51068986217820E-17   1.10000000000000E-01
      1.10000000000000E-01   0.00000000000000E+00   0.00000000000000E+00   0.00000000000000E+00   0.00000000000000E+00
      0.00000000000000E+00  -2.13455691720601E-17
      4.80000000000000E-01
      0.00000000000000E+00   0.00000000000000E+00   0.00000000000000E+00   0.00000000000000E+00  -2.50731226359836E-13
     -4.28990731845171E-12  -4.54063854481155E-12  -1.40103820498826E-17   1.92000000000000E-01   1.92000000000000E-01
      0.00000000000000E+00   0.00000000000000E+00   0.00000000000000E+00   0.00000000000000E+00   0.00000000000000E+00
      2.18882652948603E-17   3.50000000000000E-01   3.50000000000000E-01   0.00000000000000E+00   0.00000000000000E+00
      4.53462639656851E-12   6.01214824303776E-15   4.54063854481155E-12   1.50425092844136E-17   1.10000000000000E-01
      1.10000000000000E-01   0.00000000000000E+00   0.00000000000000E+00   0.00000000000000E+00   0.00000000000000E+00
      0.00000000000000E+00  -2.29203925293913E-17
      4.95000000000000E-01
      0.00000000000000E+00   0.00000000000000E+00   0.00000000000000E+00   0.00000000000000E+00  -2.52765411969973E-13
     -4.44037880083846E-12  -4.69314421280844E-12  -1.40750098378801E-17   1.98000000000000E-01   1.98000000000000E-01
      0.00000000000000E+00   0.00000000000000E+00   0.00000000000000E+00   0.00000000000000E+00   0.00000000000000E+00
      2.35921211199934E-17   3.50000000000000E-01   3.50000000000000E-01   0.00000000000000E+00   0.00000000000000E+00
      4.68717576578575E-12   5.96844702268054E-15   4.69314421280843E-12   1.49781077015337E-17   1.10000000000000E-01
      1.10000000000000E-01   0.00000000000000E+00   0.00000000000000E+00   0.00000000000000E+00   0.00000000000000E+00
      0.00000000000000E+00  -2.44952189836470E-17
      5.10000000000000E-01
      0.00000000000000E+00   0.00000000000000E+00   0.00000000000000E+00   0.00000000000000E+00  -2.54802842315383E-13
     -4.63509974828196E-12  -4.88990259059735E-12  -1.41396196672002E-17   2.04000000000000E-01   2.04000000000000E-01
      0.00000000000000E+00   0.00000000000000E+00   0.00000000000000E+00   0.00000000000000E+00   0.00000000000000E+00
      2.52959742421275E-17   3.50000000000000E-01   3.50000000000000E-01   0.00000000000000E+00   0.00000000000000E+00
      4.88397783075156E-12   5.92475984577873E-15   4.88990259059734E-12   1.49136935659972E-17   1.10000000000000E-01
      1.10000000000000E-01   0.00000000000000E+00   0.00000000000000E+00   0.00000000000000E+00   0.00000000000000E+00
      0.00000000000000E+00  -2.60700481409245E-17
      5.25000000000000E-01
      0.00000000000000E+00   0.00000000000000E+00   0.00000000000000E+00   0.00000000000000E+00  -2.56843464694846E-13
     -4.87782626619629E-12  -5.13466973089114E-12  -1.42042120039922E-17   2.10000000000000E-01   2.10000000000000E-01
      0.00000000000000E+00   0.00000000000000E+00   0.00000000000000E+00   0.00000000000000E+00   0.00000000000000E+00
      2.69998250524451E-17   3.50000000000000E-01   3.50000000000000E-01   0.00000000000000E+00   0.00000000000000E+00
      5.12878863956176E-12   5.88109132938697E-15   5.13466973089114E-12   1.48492665615989E-17   1.10000000000000E-01
      1.10000000000000E-01   0.00000000000000E+00   0.00000000000000E+00   0.00000000000000E+00   0.00000000000000E+00
      0.00000000000000E+00  -2.76448796100517E-17
      5.40000000000000E-01
      0.00000000000000E+00   0.00000000000000E+00   0.00000000000000E+00   0.00000000000000E+00  -2.58887227224457E-13
     -5.17310409901427E-12  -5.43199132623873E-12  -1.42687873003704E-17   2.16000000000000E-01   2.16000000000000E-01
      0.00000000000000E+00   0.00000000000000E+00   0.00000000000000E+00   0.00000000000000E+00   0.00000000000000E+00
      2.87036739397945E-17   3.50000000000000E-01   3.50000000000000E-01   0.00000000000000E+00   0.00000000000000E+00
      5.42615388062347E-12   5.83744561525826E-15   5.43199132623873E-12   1.47848263627663E-17   1.10000000000000E-01
      1.10000000000000E-01   0.00000000000000E+00   0.00000000000000E+00   0.00000000000000E+00   0.00000000000000E+00
      0.00000000000000E+00  -2.92197130021905E-17
      5.55000000000000E-01
      0.00000000000000E+00   0.00000000000000E+00   0.00000000000000E+00   0.00000000000000E+00  -2.60934078809348E-13