DF-ISE text

Info {
  version   = 1.0
  type      = xyplot
  datasets  = [
    "time"
    "source OuterVoltage" "source InnerVoltage" "source QuasiFermiPotential" "source DisplacementCurrent" "source eCurrent"
    "source hCurrent" "source TotalCurrent" "source Charge" "topGate OuterVoltage" "topGate InnerVoltage"
    "topGate QuasiFermiPotential" "topGate DisplacementCurrent" "topGate eCurrent" "topGate hCurrent" "topGate TotalCurrent"
    "topGate Charge" "drain OuterVoltage" "drain InnerVoltage" "drain QuasiFermiPotential" "drain DisplacementCurrent"
    "drain eCurrent" "drain hCurrent" "drain TotalCurrent" "drain Charge" "bottomGate OuterVoltage"
    "bottomGate InnerVoltage" "bottomGate QuasiFermiPotential" "bottomGate DisplacementCurrent" "bottomGate eCurrent" "bottomGate hCurrent"
    "bottomGate TotalCurrent" "bottomGate Charge" ]
  functions = [
    Time
    OuterVoltage InnerVoltage QuasiFermiPotential DisplacementCurrent eCurrent
    hCurrent TotalCurrent Charge OuterVoltage InnerVoltage
    QuasiFermiPotential DisplacementCurrent eCurrent hCurrent TotalCurrent
    Charge OuterVoltage InnerVoltage QuasiFermiPotential DisplacementCurrent
    eCurrent hCurrent TotalCurrent Charge OuterVoltage
    InnerVoltage QuasiFermiPotential DisplacementCurrent eCurrent hCurrent
    TotalCurrent Charge ]
}

Data {
      1.50000000000000E-02
      0.00000000000000E+00   0.00000000000000E+00   0.00000000000000E+00   0.00000000000000E+00  -3.75490578521406E-14
     -8.66320002969579E-11  -8.66695493548100E-11  -5.02033811894437E-18   6.00000000000000E-03   6.00000000000000E-03
      0.00000000000000E+00   0.00000000000000E+00   0.00000000000000E+00   0.00000000000000E+00   0.00000000000000E+00
      6.13920411068395E-17   4.00000000000000E-02   4.00000000000000E-02   0.00000000000000E+00   0.00000000000000E+00
      8.66640643492402E-11   5.48500556985741E-15   8.66695493548101E-11   1.66755679862965E-17   4.00000000000000E-02
      4.00000000000000E-02   0.00000000000000E+00   0.00000000000000E+00   0.00000000000000E+00   0.00000000000000E+00
      0.00000000000000E+00  -7.30472709741917E-17
      3.00000000000000E-02
      0.00000000000000E+00   0.00000000000000E+00   0.00000000000000E+00   0.00000000000000E+00  -3.83688027630088E-14
     -8.82960356127816E-11  -8.83344044155446E-11  -5.11397134203111E-18   1.20000000000000E-02   1.20000000000000E-02
      0.00000000000000E+00   0.00000000000000E+00   0.00000000000000E+00   0.00000000000000E+00   0.00000000000000E+00
      6.31182451211006E-17   4.00000000000000E-02   4.00000000000000E-02   0.00000000000000E+00   0.00000000000000E+00
      8.83289498692061E-11   5.45454633844391E-15   8.83344044155446E-11   1.65944532443903E-17   4.00000000000000E-02
      4.00000000000000E-02   0.00000000000000E+00   0.00000000000000E+00   0.00000000000000E+00   0.00000000000000E+00
      0.00000000000000E+00  -7.45987270234598E-17
      4.50000000000000E-02
      0.00000000000000E+00   0.00000000000000E+00   0.00000000000000E+00   0.00000000000000E+00  -3.91920353033292E-14
     -9.00630727653211E-11  -9.01022648006245E-11  -5.20670224412985E-18   1.80000000000000E-02   1.80000000000000E-02
      0.00000000000000E+00   0.00000000000000E+00   0.00000000000000E+00   0.00000000000000E+00   0.00000000000000E+00
      6.48432174578778E-17   4.00000000000000E-02   4.00000000000000E-02   0.00000000000000E+00   0.00000000000000E+00
      9.00968412044227E-11   5.42359620178043E-15   9.01022648006245E-11   1.65149721315897E-17   4.00000000000000E-02
      4.00000000000000E-02   0.00000000000000E+00   0.00000000000000E+00   0.00000000000000E+00   0.00000000000000E+00
      0.00000000000000E+00  -7.61514873453377E-17
      6.00000000000000E-02
      0.00000000000000E+00   0.00000000000000E+00   0.00000000000000E+00   0.00000000000000E+00  -4.00190996678886E-14
     -9.19337134121844E-11  -9.19737325118523E-11  -5.29855260720969E-18   2.40000000000000E-02   2.40000000000000E-02
      0.00000000000000E+00   0.00000000000000E+00   0.00000000000000E+00   0.00000000000000E+00   0.00000000000000E+00
      6.65670468676149E-17   4.00000000000000E-02   4.00000000000000E-02   0.00000000000000E+00   0.00000000000000E+00
      9.19683406871642E-11   5.39182468820150E-15   9.19737325118523E-11   1.64369645804995E-17   4.00000000000000E-02
      4.00000000000000E-02   0.00000000000000E+00   0.00000000000000E+00   0.00000000000000E+00   0.00000000000000E+00
      0.00000000000000E+00  -7.77054588409047E-17
      7.50000000000000E-02
      0.00000000000000E+00   0.00000000000000E+00   0.00000000000000E+00   0.00000000000000E+00  -4.08503056906476E-14
     -9.39088051231275E-11  -9.39496554288182E-11  -5.38954433162046E-18   3.00000000000000E-02   3.00000000000000E-02
      0.00000000000000E+00   0.00000000000000E+00   0.00000000000000E+00   0.00000000000000E+00   0.00000000000000E+00
      6.82898144535369E-17   4.00000000000000E-02   4.00000000000000E-02   0.00000000000000E+00   0.00000000000000E+00
      9.39442954231088E-11   5.36000570933075E-15   9.39496554288182E-11   1.63602860753715E-17   4.00000000000000E-02
      4.00000000000000E-02   0.00000000000000E+00   0.00000000000000E+00   0.00000000000000E+00   0.00000000000000E+00
      0.00000000000000E+00  -7.92605561972880E-17
      9.00000000000000E-02
      0.00000000000000E+00   0.00000000000000E+00   0.00000000000000E+00   0.00000000000000E+00  -4.16859228155917E-14
     -9.59894340617586E-11  -9.60311199845742E-11  -5.47969935432664E-18   3.60000000000000E-02   3.60000000000000E-02
      0.00000000000000E+00   0.00000000000000E+00   0.00000000000000E+00   0.00000000000000E+00   0.00000000000000E+00
      7.00115943847877E-17   4.00000000000000E-02   4.00000000000000E-02   0.00000000000000E+00   0.00000000000000E+00
      9.60257922591096E-11   5.32772546458485E-15   9.60311199845742E-11   1.62848061612521E-17   4.00000000000000E-02
      4.00000000000000E-02   0.00000000000000E+00   0.00000000000000E+00   0.00000000000000E+00   0.00000000000000E+00
      0.00000000000000E+00  -8.08167011917132E-17
      1.05000000000000E-01
      0.00000000000000E+00   0.00000000000000E+00   0.00000000000000E+00   0.00000000000000E+00  -4.25261743368223E-14
     -9.81769233004982E-11  -9.82194494748350E-11  -5.56903957629023E-18   4.20000000000000E-02   4.20000000000000E-02
      0.00000000000000E+00   0.00000000000000E+00   0.00000000000000E+00   0.00000000000000E+00   0.00000000000000E+00
      7.17324545432323E-17   4.00000000000000E-02   4.00000000000000E-02   0.00000000000000E+00   0.00000000000000E+00
      9.82141543587830E-11   5.29511605197146E-15   9.82194494748350E-11   1.62104070898979E-17   4.00000000000000E-02
      4.00000000000000E-02   0.00000000000000E+00   0.00000000000000E+00   0.00000000000000E+00   0.00000000000000E+00
      0.00000000000000E+00  -8.23738220568400E-17
      1.20000000000000E-01
      0.00000000000000E+00   0.00000000000000E+00   0.00000000000000E+00   0.00000000000000E+00  -4.33712320508615E-14
     -1.00472830287605E-10  -1.00516201519656E-10  -5.65758679827830E-18   4.80000000000000E-02   4.80000000000000E-02
      0.00000000000000E+00   0.00000000000000E+00   0.00000000000000E+00   0.00000000000000E+00   0.00000000000000E+00
      7.34524571095935E-17   4.00000000000000E-02   4.00000000000000E-02   0.00000000000000E+00   0.00000000000000E+00
      1.00510939465313E-10   5.26205434360830E-15   1.00516201519656E-10   1.61369825912597E-17   4.00000000000000E-02
      4.00000000000000E-02   0.00000000000000E+00   0.00000000000000E+00   0.00000000000000E+00   0.00000000000000E+00
      0.00000000000000E+00  -8.39318529025749E-17
      1.35000000000000E-01
      0.00000000000000E+00   0.00000000000000E+00   0.00000000000000E+00   0.00000000000000E+00  -4.42212114902264E-14
     -1.02878947717441E-10  -1.02923168928931E-10  -5.74536266440183E-18   5.40000000000000E-02   5.40000000000000E-02
      0.00000000000000E+00   0.00000000000000E+00   0.00000000000000E+00   0.00000000000000E+00   0.00000000000000E+00
      7.51716590942329E-17   4.00000000000000E-02   4.00000000000000E-02   0.00000000000000E+00   0.00000000000000E+00
      1.02917939963247E-10   5.22896568403740E-15   1.02923168928931E-10   1.60644367599585E-17   4.00000000000000E-02
      4.00000000000000E-02   0.00000000000000E+00   0.00000000000000E+00   0.00000000000000E+00   0.00000000000000E+00
      0.00000000000000E+00  -8.54907331897896E-17
      1.50000000000000E-01
      0.00000000000000E+00   0.00000000000000E+00   0.00000000000000E+00   0.00000000000000E+00  -4.50761679216835E-14
     -1.05397304246023E-10  -1.05442380413945E-10  -5.83238861272492E-18   6.00000000000000E-02   6.00000000000000E-02
      0.00000000000000E+00   0.00000000000000E+00   0.00000000000000E+00   0.00000000000000E+00   0.00000000000000E+00
      7.68901128175175E-17   4.00000000000000E-02   4.00000000000000E-02   0.00000000000000E+00   0.00000000000000E+00
      1.05437184887229E-10   5.19552671619127E-15   1.05442380413945E-10   1.59926830468432E-17   4.00000000000000E-02
      4.00000000000000E-02   0.00000000000000E+00   0.00000000000000E+00   0.00000000000000E+00   0.00000000000000E+00
      0.00000000000000E+00  -8.70504072516357E-17
      1.65000000000000E-01
      0.00000000000000E+00   0.00000000000000E+00   0.00000000000000E+00   0.00000000000000E+00  -4.59360932948288E-14
     -1.08030169943324E-10  -1.08076106036619E-10  -5.91868583232146E-18   6.60000000000000E-02   6.60000000000000E-02
      0.00000000000000E+00   0.00000000000000E+00   0.00000000000000E+00   0.00000000000000E+00   0.00000000000000E+00
      7.86078663443519E-17   4.00000000000000E-02   4.00000000000000E-02   0.00000000000000E+00   0.00000000000000E+00
      1.08070944066115E-10   5.16197050422348E-15   1.08076106036619E-10   1.59216433463852E-17   4.00000000000000E-02
      4.00000000000000E-02   0.00000000000000E+00   0.00000000000000E+00   0.00000000000000E+00   0.00000000000000E+00
      0.00000000000000E+00  -8.86108238584157E-17
      1.80000000000000E-01
      0.00000000000000E+00   0.00000000000000E+00   0.00000000000000E+00   0.00000000000000E+00  -4.68009143151589E-14
     -1.10780061789083E-10  -1.10826862703398E-10  -6.00427522619269E-18   7.20000000000000E-02   7.20000000000000E-02
      0.00000000000000E+00   0.00000000000000E+00   0.00000000000000E+00   0.00000000000000E+00   0.00000000000000E+00
      8.03249638770982E-17   4.00000000000000E-02   4.00000000000000E-02   0.00000000000000E+00   0.00000000000000E+00
      1.10821734636606E-10   5.12806679113145E-15   1.10826862703398E-10   1.58512471713371E-17   4.00000000000000E-02
      4.00000000000000E-02   0.00000000000000E+00   0.00000000000000E+00   0.00000000000000E+00   0.00000000000000E+00
      0.00000000000000E+00  -9.01719358222426E-17
      1.95000000000000E-01
      0.00000000000000E+00   0.00000000000000E+00   0.00000000000000E+00   0.00000000000000E+00  -4.76704917924133E-14
     -1.13649753915563E-10  -1.13697424407356E-10  -6.08917737949890E-18   7.80000000000000E-02   7.80000000000000E-02
      0.00000000000000E+00   0.00000000000000E+00   0.00000000000000E+00   0.00000000000000E+00   0.00000000000000E+00
      8.20414461107674E-17   4.00000000000000E-02   4.00000000000000E-02   0.00000000000000E+00   0.00000000000000E+00
      1.13692330212271E-10   5.09419508425728E-15   1.13697424407356E-10   1.57814309067277E-17   4.00000000000000E-02
      4.00000000000000E-02   0.00000000000000E+00   0.00000000000000E+00   0.00000000000000E+00   0.00000000000000E+00
      0.00000000000000E+00  -9.17336996379962E-17
      2.10000000000000E-01
      0.00000000000000E+00   0.00000000000000E+00   0.00000000000000E+00   0.00000000000000E+00  -4.85446213802607E-14
     -1.16642288559037E-10  -1.16690833180417E-10  -6.17341253259555E-18   8.40000000000000E-02   8.40000000000000E-02
      0.00000000000000E+00   0.00000000000000E+00   0.00000000000000E+00   0.00000000000000E+00   0.00000000000000E+00
      8.37573505540393E-17   4.00000000000000E-02   4.00000000000000E-02   0.00000000000000E+00   0.00000000000000E+00
      1.16685773052833E-10   5.06012758414626E-15   1.16690833180417E-10   1.57121371358977E-17   4.00000000000000E-02
      4.00000000000000E-02   0.00000000000000E+00   0.00000000000000E+00   0.00000000000000E+00   0.00000000000000E+00
      0.00000000000000E+00  -9.32960751573414E-17
      2.25000000000000E-01
      0.00000000000000E+00   0.00000000000000E+00   0.00000000000000E+00   0.00000000000000E+00  -4.94230357807623E-14
     -1.19760992604786E-10  -1.19810415640567E-10  -6.25700055840278E-18   9.00000000000000E-02   9.00000000000000E-02
      0.00000000000000E+00   0.00000000000000E+00   0.00000000000000E+00   0.00000000000000E+00   0.00000000000000E+00
      8.54727118193614E-17   4.00000000000000E-02   4.00000000000000E-02   0.00000000000000E+00   0.00000000000000E+00
      1.19805389646235E-10   5.02599433120133E-15   1.19810415640567E-10   1.56433140318737E-17   4.00000000000000E-02
      4.00000000000000E-02   0.00000000000000E+00   0.00000000000000E+00   0.00000000000000E+00   0.00000000000000E+00
      0.00000000000000E+00  -9.48590252928324E-17
      2.40000000000000E-01
      0.00000000000000E+00   0.00000000000000E+00   0.00000000000000E+00   0.00000000000000E+00  -5.03054084384581E-14
     -1.23009496454092E-10  -1.23059801862530E-10  -6.33996094367274E-18   9.60000000000000E-02   9.60000000000000E-02
      0.00000000000000E+00   0.00000000000000E+00   0.00000000000000E+00   0.00000000000000E+00   0.00000000000000E+00
      8.71875618850940E-17   4.00000000000000E-02   4.00000000000000E-02   0.00000000000000E+00   0.00000000000000E+00
      1.23054810193775E-10   4.99166875522466E-15   1.23059801862530E-10   1.55749148079447E-17   4.00000000000000E-02
      4.00000000000000E-02   0.00000000000000E+00   0.00000000000000E+00   0.00000000000000E+00   0.00000000000000E+00
      0.00000000000000E+00  -9.64225157493660E-17
      2.55000000000000E-01
      0.00000000000000E+00   0.00000000000000E+00   0.00000000000000E+00   0.00000000000000E+00  -5.11913586983213E-14
     -1.26391758532915E-10  -1.26442949891614E-10  -6.42231277375439E-18   1.02000000000000E-01   1.02000000000000E-01
      0.00000000000000E+00   0.00000000000000E+00   0.00000000000000E+00   0.00000000000000E+00   0.00000000000000E+00
      8.89019303323960E-17   4.00000000000000E-02   4.00000000000000E-02   0.00000000000000E+00   0.00000000000000E+00
      1.26437992578327E-10   4.95731328617890E-15   1.26442949891614E-10   1.55068972218350E-17   4.00000000000000E-02
      4.00000000000000E-02   0.00000000000000E+00   0.00000000000000E+00   0.00000000000000E+00   0.00000000000000E+00
      0.00000000000000E+00  -9.79865147804766E-17
      2.70000000000000E-01
      0.00000000000000E+00   0.00000000000000E+00   0.00000000000000E+00   0.00000000000000E+00  -5.20804583515852E-14
     -1.29912093887904E-10  -1.29964174346256E-10  -6.50407472048861E-18   1.08000000000000E-01   1.08000000000000E-01
      0.00000000000000E+00   0.00000000000000E+00   0.00000000000000E+00   0.00000000000000E+00   0.00000000000000E+00
      9.06158445593047E-17   4.00000000000000E-02   4.00000000000000E-02   0.00000000000000E+00   0.00000000000000E+00
      1.29959251499192E-10   4.92284706355927E-15   1.29964174346256E-10   1.54392231283600E-17   4.00000000000000E-02
      4.00000000000000E-02   0.00000000000000E+00   0.00000000000000E+00   0.00000000000000E+00   0.00000000000000E+00
      0.00000000000000E+00  -9.95509929671761E-17
      2.85000000000000E-01
      0.00000000000000E+00   0.00000000000000E+00   0.00000000000000E+00   0.00000000000000E+00  -5.29722394468448E-14
     -1.33575209614918E-10  -1.33628181854365E-10  -6.58526503289758E-18   1.14000000000000E-01   1.14000000000000E-01
      0.00000000000000E+00   0.00000000000000E+00   0.00000000000000E+00   0.00000000000000E+00   0.00000000000000E+00
      9.23293299742324E-17   4.00000000000000E-02   4.00000000000000E-02   0.00000000000000E+00   0.00000000000000E+00
      1.33623293576375E-10   4.88827798927292E-15   1.33628181854364E-10   1.53718580759117E-17   4.00000000000000E-02
      4.00000000000000E-02   0.00000000000000E+00   0.00000000000000E+00   0.00000000000000E+00   0.00000000000000E+00
      0.00000000000000E+00  -1.01115923017247E-16
      3.00000000000000E-01
      0.00000000000000E+00   0.00000000000000E+00   0.00000000000000E+00   0.00000000000000E+00  -5.38662032035417E-14
     -1.37386246808252E-10  -1.37440113011455E-10  -6.66590153036215E-18   1.20000000000000E-01   1.20000000000000E-01
      0.00000000000000E+00   0.00000000000000E+00   0.00000000000000E+00   0.00000000000000E+00   0.00000000000000E+00
      9.40424101708921E-17   4.00000000000000E-02   4.00000000000000E-02   0.00000000000000E+00   0.00000000000000E+00
      1.37435259364199E-10   4.85364725631183E-15   1.37440113011455E-10   1.53047709425429E-17   4.00000000000000E-02
      4.00000000000000E-02   0.00000000000000E+00   0.00000000000000E+00   0.00000000000000E+00   0.00000000000000E+00
      0.00000000000000E+00  -1.02681279583073E-16
      3.15000000000000E-01
      0.00000000000000E+00   0.00000000000000E+00   0.00000000000000E+00   0.00000000000000E+00  -5.47618298316035E-14
     -1.41350830556525E-10  -1.41405592386357E-10  -6.74600159800799E-18   1.26000000000000E-01   1.26000000000000E-01
      0.00000000000000E+00   0.00000000000000E+00   0.00000000000000E+00   0.00000000000000E+00   0.00000000000000E+00
      9.57551070864766E-17   4.00000000000000E-02   4.00000000000000E-02   0.00000000000000E+00   0.00000000000000E+00
      1.41400773371007E-10   4.81901535004363E-15   1.41405592386357E-10   1.52379336078101E-17   4.00000000000000E-02
      4.00000000000000E-02   0.00000000000000E+00   0.00000000000000E+00   0.00000000000000E+00   0.00000000000000E+00
      0.00000000000000E+00  -1.04247039096279E-16
      3.30000000000000E-01
      0.00000000000000E+00   0.00000000000000E+00   0.00000000000000E+00   0.00000000000000E+00  -5.56585890371451E-14
     -1.45475128985481E-10  -1.45530787574519E-10  -6.82558218404722E-18   1.32000000000000E-01   1.32000000000000E-01
      0.00000000000000E+00   0.00000000000000E+00   0.00000000000000E+00   0.00000000000000E+00   0.00000000000000E+00
      9.74674411447370E-17   4.00000000000000E-02   4.00000000000000E-02   0.00000000000000E+00   0.00000000000000E+00
      1.45526003360215E-10   4.78421430368361E-15   1.45530787574519E-10   1.51713206568938E-17   4.00000000000000E-02
      4.00000000000000E-02   0.00000000000000E+00   0.00000000000000E+00   0.00000000000000E+00   0.00000000000000E+00
      0.00000000000000E+00  -1.05813179617584E-16
      3.45000000000000E-01
      0.00000000000000E+00   0.00000000000000E+00   0.00000000000000E+00   0.00000000000000E+00  -5.65559509799901E-14
     -1.49765923842073E-10  -1.49822479793053E-10  -6.90465979884588E-18   1.38000000000000E-01   1.38000000000000E-01
      0.00000000000000E+00   0.00000000000000E+00   0.00000000000000E+00   0.00000000000000E+00   0.00000000000000E+00
      9.91794313854489E-17   4.00000000000000E-02   4.00000000000000E-02   0.00000000000000E+00   0.00000000000000E+00
      1.49817730409894E-10   4.74938315876470E-15   1.49822479793053E-10   1.51049091138414E-17   4.00000000000000E-02
      4.00000000000000E-02   0.00000000000000E+00   0.00000000000000E+00   0.00000000000000E+00   0.00000000000000E+00
      0.00000000000000E+00  -1.07379680700444E-16
      3.60000000000000E-01
      0.00000000000000E+00   0.00000000000000E+00   0.00000000000000E+00   0.00000000000000E+00  -5.74533974421717E-14
     -1.54230692511439E-10  -1.54288145908882E-10  -6.98325051550903E-18   1.44000000000000E-01   1.44000000000000E-01
      0.00000000000000E+00   0.00000000000000E+00   0.00000000000000E+00   0.00000000000000E+00   0.00000000000000E+00
      1.00891095581610E-16   4.00000000000000E-02   4.00000000000000E-02   0.00000000000000E+00   0.00000000000000E+00
      1.54283431434740E-10   4.71447414138605E-15   1.54288145908882E-10   1.50386782010792E-17   4.00000000000000E-02
      4.00000000000000E-02   0.00000000000000E+00   0.00000000000000E+00   0.00000000000000E+00   0.00000000000000E+00
      0.00000000000000E+00  -1.08946523267180E-16
      3.75000000000000E-01
      0.00000000000000E+00   0.00000000000000E+00   0.00000000000000E+00   0.00000000000000E+00  -5.83504329715811E-14
     -1.58877705197818E-10  -1.58936055630789E-10  -7.06136997179628E-18   1.50000000000000E-01   1.50000000000000E-01
      0.00000000000000E+00   0.00000000000000E+00   0.00000000000000E+00   0.00000000000000E+00   0.00000000000000E+00
      1.02602450345577E-16   4.00000000000000E-02   4.00000000000000E-02   0.00000000000000E+00   0.00000000000000E+00
      1.58931376126911E-10   4.67950387842878E-15   1.58936055630789E-10   1.49726091226117E-17   4.00000000000000E-02
      4.00000000000000E-02   0.00000000000000E+00   0.00000000000000E+00   0.00000000000000E+00   0.00000000000000E+00
      0.00000000000000E+00  -1.10513689496393E-16
      3.90000000000000E-01
      0.00000000000000E+00   0.00000000000000E+00   0.00000000000000E+00   0.00000000000000E+00  -5.92465957740055E-14
     -1.63716138435987E-10  -1.63775385031761E-10  -7.13903337319777E-18   1.56000000000000E-01   1.56000000000000E-01
      0.00000000000000E+00   0.00000000000000E+00   0.00000000000000E+00   0.00000000000000E+00   0.00000000000000E+00
      1.04313511225244E-16   4.00000000000000E-02   4.00000000000000E-02   0.00000000000000E+00   0.00000000000000E+00
      1.63770740551414E-10   4.64448034770914E-15   1.63775385031762E-10   1.49066848685762E-17   4.00000000000000E-02
      4.00000000000000E-02   0.00000000000000E+00   0.00000000000000E+00   0.00000000000000E+00   0.00000000000000E+00
      0.00000000000000E+00  -1.12081162720623E-16
      4.05000000000000E-01
      0.00000000000000E+00   0.00000000000000E+00   0.00000000000000E+00   0.00000000000000E+00  -6.01414681455034E-14
     -1.68756207798225E-10  -1.68816349266371E-10  -7.21625549701878E-18   1.62000000000000E-01   1.62000000000000E-01
      0.00000000000000E+00   0.00000000000000E+00   0.00000000000000E+00   0.00000000000000E+00   0.00000000000000E+00
      1.06024292791227E-16   4.00000000000000E-02   4.00000000000000E-02   0.00000000000000E+00   0.00000000000000E+00
      1.68811739937725E-10   4.60932864600777E-15   1.68816349266371E-10   1.48408900390451E-17   4.00000000000000E-02
      4.00000000000000E-02   0.00000000000000E+00   0.00000000000000E+00   0.00000000000000E+00   0.00000000000000E+00
      0.00000000000000E+00  -1.13648927333253E-16
      4.20000000000000E-01
      0.00000000000000E+00   0.00000000000000E+00   0.00000000000000E+00   0.00000000000000E+00  -6.10346862582100E-14
     -1.74009322990877E-10  -1.74070357677135E-10  -7.29305069733580E-18   1.68000000000000E-01   1.68000000000000E-01
      0.00000000000000E+00   0.00000000000000E+00   0.00000000000000E+00   0.00000000000000E+00   0.00000000000000E+00
      1.07734808715964E-16   4.00000000000000E-02   4.00000000000000E-02   0.00000000000000E+00   0.00000000000000E+00
      1.74065783541785E-10   4.57413534954004E-15   1.74070357677135E-10   1.47752106851754E-17   4.00000000000000E-02
      4.00000000000000E-02   0.00000000000000E+00   0.00000000000000E+00   0.00000000000000E+00   0.00000000000000E+00
      0.00000000000000E+00  -1.15216968703804E-16
      4.35000000000000E-01
      0.00000000000000E+00   0.00000000000000E+00   0.00000000000000E+00   0.00000000000000E+00  -6.19259491373008E-14
     -1.79488267699220E-10  -1.79550193648357E-10  -7.36943291070069E-18   1.74000000000000E-01   1.74000000000000E-01
      0.00000000000000E+00   0.00000000000000E+00   0.00000000000000E+00   0.00000000000000E+00   0.00000000000000E+00
      1.09445071845514E-16   4.00000000000000E-02   4.00000000000000E-02   0.00000000000000E+00   0.00000000000000E+00
      1.79545654810527E-10   4.53883783009755E-15   1.79550193648357E-10   1.47096341659882E-17   4.00000000000000E-02
      4.00000000000000E-02   0.00000000000000E+00   0.00000000000000E+00   0.00000000000000E+00   0.00000000000000E+00
      0.00000000000000E+00  -1.16785273100802E-16
      4.50000000000000E-01
      0.00000000000000E+00   0.00000000000000E+00   0.00000000000000E+00   0.00000000000000E+00  -6.28150266954042E-14
     -1.85207408871412E-10  -1.85270223898108E-10  -7.44541566248346E-18   1.80000000000000E-01   1.80000000000000E-01
      0.00000000000000E+00   0.00000000000000E+00   0.00000000000000E+00   0.00000000000000E+00   0.00000000000000E+00
      1.11155094264777E-16   4.00000000000000E-02   4.00000000000000E-02   0.00000000000000E+00   0.00000000000000E+00
      1.85265720463112E-10   4.50343499587607E-15   1.85270223898107E-10   1.46441490192305E-17   4.00000000000000E-02
      4.00000000000000E-02   0.00000000000000E+00   0.00000000000000E+00   0.00000000000000E+00   0.00000000000000E+00
      0.00000000000000E+00  -1.18353827621524E-16
      4.65000000000000E-01
      0.00000000000000E+00   0.00000000000000E+00   0.00000000000000E+00   0.00000000000000E+00  -6.37017667162382E-14
     -1.91182938643508E-10  -1.91246640410224E-10  -7.52101207375454E-18   1.86000000000000E-01   1.86000000000000E-01
      0.00000000000000E+00   0.00000000000000E+00   0.00000000000000E+00   0.00000000000000E+00   0.00000000000000E+00
      1.12864887356782E-16   4.00000000000000E-02   4.00000000000000E-02   0.00000000000000E+00   0.00000000000000E+00
      1.91242172506997E-10   4.46790322730274E-15   1.91246640410224E-10   1.45787448449241E-17   4.00000000000000E-02
      4.00000000000000E-02   0.00000000000000E+00   0.00000000000000E+00   0.00000000000000E+00   0.00000000000000E+00
      0.00000000000000E+00  -1.19922620127951E-16
      4.80000000000000E-01
      0.00000000000000E+00   0.00000000000000E+00   0.00000000000000E+00   0.00000000000000E+00  -6.45861007073841E-14
     -1.97433153783579E-10  -1.97497739884286E-10  -7.59623486861857E-18   1.92000000000000E-01   1.92000000000000E-01
      0.00000000000000E+00   0.00000000000000E+00   0.00000000000000E+00   0.00000000000000E+00   0.00000000000000E+00
      1.14574461856625E-16   4.00000000000000E-02   4.00000000000000E-02   0.00000000000000E+00   0.00000000000000E+00
      1.97493307630014E-10   4.43225427171859E-15   1.97497739884286E-10   1.45134122003436E-17   4.00000000000000E-02
      4.00000000000000E-02   0.00000000000000E+00   0.00000000000000E+00   0.00000000000000E+00   0.00000000000000E+00
      0.00000000000000E+00  -1.21491639188350E-16
      4.95000000000000E-01
      0.00000000000000E+00   0.00000000000000E+00   0.00000000000000E+00   0.00000000000000E+00  -6.54680485663864E-14
     -2.03978777244946E-10  -2.04044245293512E-10  -7.67109638192106E-18   1.98000000000000E-01   1.98000000000000E-01
      0.00000000000000E+00   0.00000000000000E+00   0.00000000000000E+00   0.00000000000000E+00   0.00000000000000E+00
      1.16283827900588E-16   4.00000000000000E-02   4.00000000000000E-02   0.00000000000000E+00   0.00000000000000E+00
      2.04039848848513E-10   4.39644499836442E-15   2.04044245293512E-10   1.44481425052884E-17   4.00000000000000E-02
      4.00000000000000E-02   0.00000000000000E+00   0.00000000000000E+00   0.00000000000000E+00   0.00000000000000E+00
      0.00000000000000E+00  -1.23060874023955E-16
      5.10000000000000E-01
      0.00000000000000E+00   0.00000000000000E+00   0.00000000000000E+00   0.00000000000000E+00  -6.63477220281002E-14
     -2.10843327493491E-10  -2.10909675215519E-10  -7.74560856725813E-18   2.04000000000000E-01   2.04000000000000E-01
      0.00000000000000E+00   0.00000000000000E+00   0.00000000000000E+00   0.00000000000000E+00   0.00000000000000E+00
      1.17992995070894E-16   4.00000000000000E-02   4.00000000000000E-02   0.00000000000000E+00   0.00000000000000E+00
      2.10905314742409E-10   4.36047310942217E-15   2.10909675215519E-10   1.43829279566283E-17   4.00000000000000E-02
      4.00000000000000E-02   0.00000000000000E+00   0.00000000000000E+00   0.00000000000000E+00   0.00000000000000E+00
      0.00000000000000E+00  -1.24630314460264E-16
      5.25000000000000E-01
      0.00000000000000E+00   0.00000000000000E+00   0.00000000000000E+00   0.00000000000000E+00  -6.72253268814030E-14
     -2.18053541048528E-10  -2.18120766375409E-10  -7.81978300522654E-18   2.10000000000000E-01   2.10000000000000E-01
      0.00000000000000E+00   0.00000000000000E+00   0.00000000000000E+00   0.00000000000000E+00   0.00000000000000E+00
      1.19701972436537E-16   4.00000000000000E-02   4.00000000000000E-02   0.00000000000000E+00   0.00000000000000E+00
      2.18116442066325E-10   4.32430908372397E-15   2.18120766375409E-10   1.43177614512014E-17   4.00000000000000E-02
      4.00000000000000E-02   0.00000000000000E+00   0.00000000000000E+00   0.00000000000000E+00   0.00000000000000E+00
      0.00000000000000E+00  -1.26199950882512E-16
      5.40000000000000E-01
      0.00000000000000E+00   0.00000000000000E+00   0.00000000000000E+00   0.00000000000000E+00  -6.81011639616075E-14
     -2.25639854755042E-10  -2.25707955919004E-10  -7.89363091185917E-18   2.16000000000000E-01   2.16000000000000E-01
      0.00000000000000E+00   0.00000000000000E+00   0.00000000000000E+00   0.00000000000000E+00   0.00000000000000E+00
      1.21410768590566E-16   4.00000000000000E-02   4.00000000000000E-02   0.00000000000000E+00   0.00000000000000E+00
      2.25703667987005E-10   4.28793199836057E-15   2.25707955919004E-10   1.42526365162354E-17   4.00000000000000E-02
      4.00000000000000E-02   0.00000000000000E+00   0.00000000000000E+00   0.00000000000000E+00   0.00000000000000E+00
      0.00000000000000E+00  -1.27769774194942E-16
      5.55000000000000E-01
      0.00000000000000E+00   0.00000000000000E+00   0.00000000000000E+00   0.00000000000000E+00  -6.89756289404218E-14