DF-ISE text

Info {
  version   = 1.0
  type      = xyplot
  datasets  = [
    "time"
    "source OuterVoltage" "source InnerVoltage" "source QuasiFermiPotential" "source DisplacementCurrent" "source eCurrent"
    "source hCurrent" "source TotalCurrent" "source Charge" "topGate OuterVoltage" "topGate InnerVoltage"
    "topGate QuasiFermiPotential" "topGate DisplacementCurrent" "topGate eCurrent" "topGate hCurrent" "topGate TotalCurrent"
    "topGate Charge" "drain OuterVoltage" "drain InnerVoltage" "drain QuasiFermiPotential" "drain DisplacementCurrent"
    "drain eCurrent" "drain hCurrent" "drain TotalCurrent" "drain Charge" "bottomGate OuterVoltage"
    "bottomGate InnerVoltage" "bottomGate QuasiFermiPotential" "bottomGate DisplacementCurrent" "bottomGate eCurrent" "bottomGate hCurrent"
    "bottomGate TotalCurrent" "bottomGate Charge" ]
  functions = [
    Time
    OuterVoltage InnerVoltage QuasiFermiPotential DisplacementCurrent eCurrent
    hCurrent TotalCurrent Charge OuterVoltage InnerVoltage
    QuasiFermiPotential DisplacementCurrent eCurrent hCurrent TotalCurrent
    Charge OuterVoltage InnerVoltage QuasiFermiPotential DisplacementCurrent
    eCurrent hCurrent TotalCurrent Charge OuterVoltage
    InnerVoltage QuasiFermiPotential DisplacementCurrent eCurrent hCurrent
    TotalCurrent Charge ]
}

Data {
      1.50000000000000E-02
      0.00000000000000E+00   0.00000000000000E+00   0.00000000000000E+00   0.00000000000000E+00  -4.30242568577162E-14
     -1.17358302665620E-10  -1.17401326922477E-10  -5.02035124559942E-18   6.00000000000000E-03   6.00000000000000E-03
      0.00000000000000E+00   0.00000000000000E+00   0.00000000000000E+00   0.00000000000000E+00   0.00000000000000E+00
      6.11783992334770E-17   6.00000000000000E-02   6.00000000000000E-02   0.00000000000000E+00   0.00000000000000E+00
      1.17394819000678E-10   6.50792179886495E-15   1.17401326922477E-10   1.71028285826860E-17   4.00000000000000E-02
      4.00000000000000E-02   0.00000000000000E+00   0.00000000000000E+00   0.00000000000000E+00   0.00000000000000E+00
      0.00000000000000E+00  -7.32608765705635E-17
      3.00000000000000E-02
      0.00000000000000E+00   0.00000000000000E+00   0.00000000000000E+00   0.00000000000000E+00  -4.39636866682510E-14
     -1.19313522272412E-10  -1.19357485959080E-10  -5.11398436569788E-18   1.20000000000000E-02   1.20000000000000E-02
      0.00000000000000E+00   0.00000000000000E+00   0.00000000000000E+00   0.00000000000000E+00   0.00000000000000E+00
      6.29045590243118E-17   6.00000000000000E-02   6.00000000000000E-02   0.00000000000000E+00   0.00000000000000E+00
      1.19351007319941E-10   6.47863913894037E-15   1.19357485959080E-10   1.70218050385968E-17   4.00000000000000E-02
      4.00000000000000E-02   0.00000000000000E+00   0.00000000000000E+00   0.00000000000000E+00   0.00000000000000E+00
      0.00000000000000E+00  -7.48123796972107E-17
      4.50000000000000E-02
      0.00000000000000E+00   0.00000000000000E+00   0.00000000000000E+00   0.00000000000000E+00  -4.49070946569374E-14
     -1.21403187700581E-10  -1.21448094795238E-10  -5.20671516503376E-18   1.80000000000000E-02   1.80000000000000E-02
      0.00000000000000E+00   0.00000000000000E+00   0.00000000000000E+00   0.00000000000000E+00   0.00000000000000E+00
      6.46294888098845E-17   6.00000000000000E-02   6.00000000000000E-02   0.00000000000000E+00   0.00000000000000E+00
      1.21441647187055E-10   6.44760818232879E-15   1.21448094795238E-10   1.69424115708915E-17   4.00000000000000E-02
      4.00000000000000E-02   0.00000000000000E+00   0.00000000000000E+00   0.00000000000000E+00   0.00000000000000E+00
      0.00000000000000E+00  -7.63651852157423E-17
      6.00000000000000E-02
      0.00000000000000E+00   0.00000000000000E+00   0.00000000000000E+00   0.00000000000000E+00  -4.58548891970631E-14
     -1.23627394340134E-10  -1.23673249229331E-10  -5.29856542590671E-18   2.40000000000000E-02   2.40000000000000E-02
      0.00000000000000E+00   0.00000000000000E+00   0.00000000000000E+00   0.00000000000000E+00   0.00000000000000E+00
      6.63532771065073E-17   6.00000000000000E-02   6.00000000000000E-02   0.00000000000000E+00   0.00000000000000E+00
      1.23666833702441E-10   6.41552688969682E-15   1.23673249229331E-10   1.68644885938527E-17   4.00000000000000E-02
      4.00000000000000E-02   0.00000000000000E+00   0.00000000000000E+00   0.00000000000000E+00   0.00000000000000E+00
      0.00000000000000E+00  -7.79192002744533E-17
      7.50000000000000E-02
      0.00000000000000E+00   0.00000000000000E+00   0.00000000000000E+00   0.00000000000000E+00  -4.68074421353730E-14
     -1.25986554806337E-10  -1.26033362248473E-10  -5.38955704895257E-18   3.00000000000000E-02   3.00000000000000E-02
      0.00000000000000E+00   0.00000000000000E+00   0.00000000000000E+00   0.00000000000000E+00   0.00000000000000E+00
      6.80760048052232E-17   6.00000000000000E-02   6.00000000000000E-02   0.00000000000000E+00   0.00000000000000E+00
      1.26026979598589E-10   6.38264988382132E-15   1.26033362248473E-10   1.67878920289853E-17   4.00000000000000E-02
      4.00000000000000E-02   0.00000000000000E+00   0.00000000000000E+00   0.00000000000000E+00   0.00000000000000E+00
      0.00000000000000E+00  -7.94743397852559E-17
      9.00000000000000E-02
      0.00000000000000E+00   0.00000000000000E+00   0.00000000000000E+00   0.00000000000000E+00  -4.77650825674695E-14
     -1.28481390699141E-10  -1.28529155781708E-10  -5.47971197138202E-18   3.60000000000000E-02   3.60000000000000E-02
      0.00000000000000E+00   0.00000000000000E+00   0.00000000000000E+00   0.00000000000000E+00   0.00000000000000E+00
      6.97977458826921E-17   6.00000000000000E-02   6.00000000000000E-02   0.00000000000000E+00   0.00000000000000E+00
      1.28522806982814E-10   6.34879889485886E-15   1.28529155781708E-10   1.67124918186268E-17   4.00000000000000E-02
      4.00000000000000E-02   0.00000000000000E+00   0.00000000000000E+00   0.00000000000000E+00   0.00000000000000E+00
      0.00000000000000E+00  -8.10305257299369E-17
      1.05000000000000E-01
      0.00000000000000E+00   0.00000000000000E+00   0.00000000000000E+00   0.00000000000000E+00  -4.87280909335708E-14
     -1.31112927062483E-10  -1.31161655153416E-10  -5.56905209436736E-18   4.20000000000000E-02   4.20000000000000E-02
      0.00000000000000E+00   0.00000000000000E+00   0.00000000000000E+00   0.00000000000000E+00   0.00000000000000E+00
      7.15185680459557E-17   6.00000000000000E-02   6.00000000000000E-02   0.00000000000000E+00   0.00000000000000E+00
      1.31155340952248E-10   6.31420116835229E-15   1.31161655153417E-10   1.66381705759146E-17   4.00000000000000E-02
      4.00000000000000E-02   0.00000000000000E+00   0.00000000000000E+00   0.00000000000000E+00   0.00000000000000E+00
      0.00000000000000E+00  -8.25876865275029E-17
      1.20000000000000E-01
      0.00000000000000E+00   0.00000000000000E+00   0.00000000000000E+00   0.00000000000000E+00  -4.96966935706839E-14
     -1.33882487294544E-10  -1.33932183988115E-10  -5.65759921885406E-18   4.80000000000000E-02   4.80000000000000E-02
      0.00000000000000E+00   0.00000000000000E+00   0.00000000000000E+00   0.00000000000000E+00   0.00000000000000E+00
      7.32385333167317E-17   6.00000000000000E-02   6.00000000000000E-02   0.00000000000000E+00   0.00000000000000E+00
      1.33925905150706E-10   6.27883740923329E-15   1.33932183988115E-10   1.65648223599419E-17   4.00000000000000E-02
      4.00000000000000E-02   0.00000000000000E+00   0.00000000000000E+00   0.00000000000000E+00   0.00000000000000E+00
      0.00000000000000E+00  -8.41457564578195E-17
      1.35000000000000E-01
      0.00000000000000E+00   0.00000000000000E+00   0.00000000000000E+00   0.00000000000000E+00  -5.06710578835940E-14
     -1.36791691374139E-10  -1.36842362432022E-10  -5.74537498910282E-18   5.40000000000000E-02   5.40000000000000E-02
      0.00000000000000E+00   0.00000000000000E+00   0.00000000000000E+00   0.00000000000000E+00   0.00000000000000E+00
      7.49576985605299E-17   6.00000000000000E-02   6.00000000000000E-02   0.00000000000000E+00   0.00000000000000E+00
      1.36836119369722E-10   6.24306230048128E-15   1.36842362432022E-10   1.64923515655598E-17   4.00000000000000E-02
      4.00000000000000E-02   0.00000000000000E+00   0.00000000000000E+00   0.00000000000000E+00   0.00000000000000E+00
      0.00000000000000E+00  -8.57046751369868E-17
      1.50000000000000E-01
      0.00000000000000E+00   0.00000000000000E+00   0.00000000000000E+00   0.00000000000000E+00  -5.16512883120583E-14
     -1.39842454657412E-10  -1.39894105945724E-10  -5.83240084330211E-18   6.00000000000000E-02   6.00000000000000E-02
      0.00000000000000E+00   0.00000000000000E+00   0.00000000000000E+00   0.00000000000000E+00   0.00000000000000E+00
      7.66761159655171E-17   6.00000000000000E-02   6.00000000000000E-02   0.00000000000000E+00   0.00000000000000E+00
      1.39887899332666E-10   6.20661305827427E-15   1.39894105945724E-10   1.64206719179435E-17   4.00000000000000E-02
      4.00000000000000E-02   0.00000000000000E+00   0.00000000000000E+00   0.00000000000000E+00   0.00000000000000E+00
      0.00000000000000E+00  -8.72643870401585E-17
      1.65000000000000E-01
      0.00000000000000E+00   0.00000000000000E+00   0.00000000000000E+00   0.00000000000000E+00  -5.26374232743705E-14
     -1.43036991156377E-10  -1.43089628579652E-10  -5.91869797062757E-18   6.60000000000000E-02   6.60000000000000E-02
      0.00000000000000E+00   0.00000000000000E+00   0.00000000000000E+00   0.00000000000000E+00   0.00000000000000E+00
      7.83938334756931E-17   6.00000000000000E-02   6.00000000000000E-02   0.00000000000000E+00   0.00000000000000E+00
      1.43083458841929E-10   6.16973772200698E-15   1.43089628579651E-10   1.63497055627090E-17   4.00000000000000E-02
      4.00000000000000E-02   0.00000000000000E+00   0.00000000000000E+00   0.00000000000000E+00   0.00000000000000E+00
      0.00000000000000E+00  -8.88248410677745E-17
      1.80000000000000E-01
      0.00000000000000E+00   0.00000000000000E+00   0.00000000000000E+00   0.00000000000000E+00  -5.36294332564534E-14
     -1.46377817572533E-10  -1.46431447005790E-10  -6.00428727416227E-18   7.20000000000000E-02   7.20000000000000E-02
      0.00000000000000E+00   0.00000000000000E+00   0.00000000000000E+00   0.00000000000000E+00   0.00000000000000E+00
      8.01108951825893E-17   6.00000000000000E-02   6.00000000000000E-02   0.00000000000000E+00   0.00000000000000E+00
      1.46425314515459E-10   6.13249033034773E-15   1.46431447005790E-10   1.62793822430302E-17   4.00000000000000E-02
      4.00000000000000E-02   0.00000000000000E+00   0.00000000000000E+00   0.00000000000000E+00   0.00000000000000E+00
      0.00000000000000E+00  -9.03859901514571E-17
      1.95000000000000E-01
      0.00000000000000E+00   0.00000000000000E+00   0.00000000000000E+00   0.00000000000000E+00  -5.46272201930595E-14
     -1.49867761050112E-10  -1.49922388270305E-10  -6.08918933913053E-18   7.80000000000000E-02   7.80000000000000E-02
      0.00000000000000E+00   0.00000000000000E+00   0.00000000000000E+00   0.00000000000000E+00   0.00000000000000E+00
      8.18273416793577E-17   6.00000000000000E-02   6.00000000000000E-02   0.00000000000000E+00   0.00000000000000E+00
      1.49916293391413E-10   6.09487889146242E-15   1.49922388270305E-10   1.62096385558562E-17   4.00000000000000E-02
      4.00000000000000E-02   0.00000000000000E+00   0.00000000000000E+00   0.00000000000000E+00   0.00000000000000E+00
      0.00000000000000E+00  -9.19477908960833E-17
      2.10000000000000E-01
      0.00000000000000E+00   0.00000000000000E+00   0.00000000000000E+00   0.00000000000000E+00  -5.56306182533939E-14
     -1.53509970016127E-10  -1.53565600634381E-10  -6.17342440593636E-18   8.40000000000000E-02   8.40000000000000E-02
      0.00000000000000E+00   0.00000000000000E+00   0.00000000000000E+00   0.00000000000000E+00   0.00000000000000E+00
      8.35432103807984E-17   6.00000000000000E-02   6.00000000000000E-02   0.00000000000000E+00   0.00000000000000E+00
      1.53559543739409E-10   6.05689497226069E-15   1.53565600634381E-10   1.61404172799536E-17   4.00000000000000E-02
      4.00000000000000E-02   0.00000000000000E+00   0.00000000000000E+00   0.00000000000000E+00   0.00000000000000E+00
      0.00000000000000E+00  -9.35102032548156E-17
      2.25000000000000E-01
      0.00000000000000E+00   0.00000000000000E+00   0.00000000000000E+00   0.00000000000000E+00  -5.66393961014812E-14
     -1.57307928805255E-10  -1.57364568201356E-10  -6.25701234753481E-18   9.00000000000000E-02   9.00000000000000E-02
      0.00000000000000E+00   0.00000000000000E+00   0.00000000000000E+00   0.00000000000000E+00   0.00000000000000E+00
      8.52585358125635E-17   6.00000000000000E-02   6.00000000000000E-02   0.00000000000000E+00   0.00000000000000E+00
      1.57358549485271E-10   6.01871608516421E-15   1.57364568201356E-10   1.60716667690933E-17   4.00000000000000E-02
      4.00000000000000E-02   0.00000000000000E+00   0.00000000000000E+00   0.00000000000000E+00   0.00000000000000E+00
      0.00000000000000E+00  -9.50731902341221E-17
      2.40000000000000E-01
      0.00000000000000E+00   0.00000000000000E+00   0.00000000000000E+00   0.00000000000000E+00  -5.76532606534522E-14
     -1.61265475694859E-10  -1.61323128955512E-10  -6.33997265070084E-18   9.60000000000000E-02   9.60000000000000E-02
      0.00000000000000E+00   0.00000000000000E+00   0.00000000000000E+00   0.00000000000000E+00   0.00000000000000E+00
      8.69733498724957E-17   6.00000000000000E-02   6.00000000000000E-02   0.00000000000000E+00   0.00000000000000E+00
      1.61317148734699E-10   5.98022081291229E-15   1.61323128955512E-10   1.60033404042636E-17   4.00000000000000E-02
      4.00000000000000E-02   0.00000000000000E+00   0.00000000000000E+00   0.00000000000000E+00   0.00000000000000E+00
      0.00000000000000E+00  -9.66367176260585E-17
      2.55000000000000E-01
      0.00000000000000E+00   0.00000000000000E+00   0.00000000000000E+00   0.00000000000000E+00  -5.86718623039615E-14
     -1.65386826662093E-10  -1.65445498524397E-10  -6.42232440079582E-18   1.02000000000000E-01   1.02000000000000E-01
      0.00000000000000E+00   0.00000000000000E+00   0.00000000000000E+00   0.00000000000000E+00   0.00000000000000E+00
      8.86876820667870E-17   6.00000000000000E-02   6.00000000000000E-02   0.00000000000000E+00   0.00000000000000E+00
      1.65439556971768E-10   5.94155262883591E-15   1.65445498524397E-10   1.59353960993220E-17   4.00000000000000E-02
      4.00000000000000E-02   0.00000000000000E+00   0.00000000000000E+00   0.00000000000000E+00   0.00000000000000E+00
      0.00000000000000E+00  -9.82007537653132E-17
      2.70000000000000E-01
      0.00000000000000E+00   0.00000000000000E+00   0.00000000000000E+00   0.00000000000000E+00  -5.96948015439320E-14
     -1.69676603489326E-10  -1.69736298290870E-10  -6.50408626966384E-18   1.08000000000000E-01   1.08000000000000E-01
      0.00000000000000E+00   0.00000000000000E+00   0.00000000000000E+00   0.00000000000000E+00   0.00000000000000E+00
      9.04015597234030E-17   6.00000000000000E-02   6.00000000000000E-02   0.00000000000000E+00   0.00000000000000E+00
      1.69730395612387E-10   5.90267848256400E-15   1.69736298290870E-10   1.58677958549874E-17   4.00000000000000E-02
      4.00000000000000E-02   0.00000000000000E+00   0.00000000000000E+00   0.00000000000000E+00   0.00000000000000E+00
      0.00000000000000E+00  -9.97652693087265E-17
      2.85000000000000E-01
      0.00000000000000E+00   0.00000000000000E+00   0.00000000000000E+00   0.00000000000000E+00  -6.07216368459211E-14
     -1.74139868737628E-10  -1.74200590374474E-10  -6.58527650632247E-18   1.14000000000000E-01   1.14000000000000E-01
      0.00000000000000E+00   0.00000000000000E+00   0.00000000000000E+00   0.00000000000000E+00   0.00000000000000E+00
      9.21150081849874E-17   6.00000000000000E-02   6.00000000000000E-02   0.00000000000000E+00   0.00000000000000E+00
      1.74194726712841E-10   5.86366163271374E-15   1.74200590374474E-10   1.58005053565334E-17   4.00000000000000E-02
      4.00000000000000E-02   0.00000000000000E+00   0.00000000000000E+00   0.00000000000000E+00   0.00000000000000E+00
      0.00000000000000E+00  -1.01330237035198E-16
      3.00000000000000E-01
      0.00000000000000E+00   0.00000000000000E+00   0.00000000000000E+00   0.00000000000000E+00  -6.17518936529834E-14
     -1.78782167392436E-10  -1.78843919286089E-10  -6.66591293014103E-18   1.20000000000000E-01   1.20000000000000E-01
      0.00000000000000E+00   0.00000000000000E+00   0.00000000000000E+00   0.00000000000000E+00   0.00000000000000E+00
      9.38280509832540E-17   6.00000000000000E-02   6.00000000000000E-02   0.00000000000000E+00   0.00000000000000E+00
      1.78838094771201E-10   5.82451488759718E-15   1.78843919286088E-10   1.57334936109653E-17   4.00000000000000E-02
      4.00000000000000E-02   0.00000000000000E+00   0.00000000000000E+00   0.00000000000000E+00   0.00000000000000E+00
      0.00000000000000E+00  -1.02895631664078E-16
      3.15000000000000E-01
      0.00000000000000E+00   0.00000000000000E+00   0.00000000000000E+00   0.00000000000000E+00  -6.27850742741387E-14
     -1.83609576829359E-10  -1.83672361903633E-10  -6.74601292622778E-18   1.26000000000000E-01   1.26000000000000E-01
      0.00000000000000E+00   0.00000000000000E+00   0.00000000000000E+00   0.00000000000000E+00   0.00000000000000E+00
      9.55407099966831E-17   6.00000000000000E-02   6.00000000000000E-02   0.00000000000000E+00   0.00000000000000E+00
      1.83666576716875E-10   5.78518675803204E-15   1.83672361903633E-10   1.56667326198522E-17   4.00000000000000E-02
      4.00000000000000E-02   0.00000000000000E+00   0.00000000000000E+00   0.00000000000000E+00   0.00000000000000E+00
      0.00000000000000E+00  -1.04461429690308E-16
      3.30000000000000E-01
      0.00000000000000E+00   0.00000000000000E+00   0.00000000000000E+00   0.00000000000000E+00  -6.38206684659882E-14
     -1.88628766483071E-10  -1.88692587151537E-10  -6.82559344277247E-18   1.32000000000000E-01   1.32000000000000E-01
      0.00000000000000E+00   0.00000000000000E+00   0.00000000000000E+00   0.00000000000000E+00   0.00000000000000E+00
      9.72530055931629E-17   6.00000000000000E-02   6.00000000000000E-02   0.00000000000000E+00   0.00000000000000E+00
      1.88686841362545E-10   5.74578899226938E-15   1.88692587151537E-10   1.56001970843437E-17   4.00000000000000E-02
      4.00000000000000E-02   0.00000000000000E+00   0.00000000000000E+00   0.00000000000000E+00   0.00000000000000E+00
      0.00000000000000E+00  -1.06027609234734E-16
      3.45000000000000E-01
      0.00000000000000E+00   0.00000000000000E+00   0.00000000000000E+00   0.00000000000000E+00  -6.48581644650970E-14
     -1.93847067921766E-10  -1.93911926086231E-10  -6.90467099011440E-18   1.38000000000000E-01   1.38000000000000E-01
      0.00000000000000E+00   0.00000000000000E+00   0.00000000000000E+00   0.00000000000000E+00   0.00000000000000E+00
      9.89649567590608E-17   6.00000000000000E-02   6.00000000000000E-02   0.00000000000000E+00   0.00000000000000E+00
      1.93906219795098E-10   5.70629113305820E-15   1.93911926086231E-10   1.55338641392253E-17   4.00000000000000E-02
      4.00000000000000E-02   0.00000000000000E+00   0.00000000000000E+00   0.00000000000000E+00   0.00000000000000E+00
      0.00000000000000E+00  -1.07594149908172E-16
      3.60000000000000E-01
      0.00000000000000E+00   0.00000000000000E+00   0.00000000000000E+00   0.00000000000000E+00  -6.58970602310311E-14
     -1.99272557946399E-10  -1.99338455006630E-10  -6.98326164132836E-18   1.44000000000000E-01   1.44000000000000E-01
      0.00000000000000E+00   0.00000000000000E+00   0.00000000000000E+00   0.00000000000000E+00   0.00000000000000E+00
      1.00676581216062E-16   6.00000000000000E-02   6.00000000000000E-02   0.00000000000000E+00   0.00000000000000E+00
      1.99332788409169E-10   5.66659746077708E-15   1.99338455006630E-10   1.54677131131693E-17   4.00000000000000E-02
      4.00000000000000E-02   0.00000000000000E+00   0.00000000000000E+00   0.00000000000000E+00   0.00000000000000E+00
      0.00000000000000E+00  -1.09161032687903E-16
      3.75000000000000E-01
      0.00000000000000E+00   0.00000000000000E+00   0.00000000000000E+00   0.00000000000000E+00  -6.69368746627901E-14
     -2.04914156579592E-10  -2.04981093454255E-10  -7.06138103414070E-18   1.50000000000000E-01   1.50000000000000E-01
      0.00000000000000E+00   0.00000000000000E+00   0.00000000000000E+00   0.00000000000000E+00   0.00000000000000E+00
      1.02387895526983E-16   6.00000000000000E-02   6.00000000000000E-02   0.00000000000000E+00   0.00000000000000E+00
      2.04975466539797E-10   5.62691445836721E-15   2.04981093454255E-10   1.54017253126052E-17   4.00000000000000E-02
      4.00000000000000E-02   0.00000000000000E+00   0.00000000000000E+00   0.00000000000000E+00   0.00000000000000E+00
      0.00000000000000E+00  -1.10728239805448E-16
      3.90000000000000E-01
      0.00000000000000E+00   0.00000000000000E+00   0.00000000000000E+00   0.00000000000000E+00  -6.79771585622547E-14
     -2.10781740840980E-10  -2.10849717999543E-10  -7.13904437400571E-18   1.56000000000000E-01   1.56000000000000E-01
      0.00000000000000E+00   0.00000000000000E+00   0.00000000000000E+00   0.00000000000000E+00   0.00000000000000E+00
      1.04098915191648E-16   6.00000000000000E-02   6.00000000000000E-02   0.00000000000000E+00   0.00000000000000E+00
      2.10844130930034E-10   5.58706950856926E-15   2.10849717999543E-10   1.53358838268861E-17   4.00000000000000E-02
      4.00000000000000E-02   0.00000000000000E+00   0.00000000000000E+00   0.00000000000000E+00   0.00000000000000E+00
      0.00000000000000E+00  -1.12295754644528E-16
      4.05000000000000E-01
      0.00000000000000E+00   0.00000000000000E+00   0.00000000000000E+00   0.00000000000000E+00  -6.90175051363401E-14
     -2.16886279255691E-10  -2.16955296760828E-10  -7.21626643819099E-18   1.62000000000000E-01   1.62000000000000E-01
      0.00000000000000E+00   0.00000000000000E+00   0.00000000000000E+00   0.00000000000000E+00   0.00000000000000E+00
      1.05809654733810E-16   6.00000000000000E-02   6.00000000000000E-02   0.00000000000000E+00   0.00000000000000E+00
      2.16949749575400E-10   5.54718542750300E-15   2.16955296760828E-10   1.52701733526503E-17   4.00000000000000E-02
      4.00000000000000E-02   0.00000000000000E+00   0.00000000000000E+00   0.00000000000000E+00   0.00000000000000E+00
      0.00000000000000E+00  -1.13863561648269E-16
      4.20000000000000E-01
      0.00000000000000E+00   0.00000000000000E+00   0.00000000000000E+00   0.00000000000000E+00  -7.00575598497471E-14
     -2.23239987476621E-10  -2.23310045036471E-10  -7.29306158073355E-18   1.68000000000000E-01   1.68000000000000E-01
      0.00000000000000E+00   0.00000000000000E+00   0.00000000000000E+00   0.00000000000000E+00   0.00000000000000E+00
      1.07520127780002E-16   6.00000000000000E-02   6.00000000000000E-02   0.00000000000000E+00   0.00000000000000E+00
      2.23304537819461E-10   5.50721700904055E-15   2.23310045036470E-10   1.52045800354808E-17   4.00000000000000E-02
      4.00000000000000E-02   0.00000000000000E+00   0.00000000000000E+00   0.00000000000000E+00   0.00000000000000E+00
      0.00000000000000E+00  -1.15431646234749E-16
      4.35000000000000E-01
      0.00000000000000E+00   0.00000000000000E+00   0.00000000000000E+00   0.00000000000000E+00  -7.10970294672949E-14
     -2.29856510063080E-10  -2.29927607092548E-10  -7.36944373814463E-18   1.74000000000000E-01   1.74000000000000E-01
      0.00000000000000E+00   0.00000000000000E+00   0.00000000000000E+00   0.00000000000000E+00   0.00000000000000E+00
      1.09230347131105E-16   6.00000000000000E-02   6.00000000000000E-02   0.00000000000000E+00   0.00000000000000E+00
      2.29922139932621E-10   5.46715992685133E-15   2.29927607092548E-10   1.51390913271537E-17   4.00000000000000E-02
      4.00000000000000E-02   0.00000000000000E+00   0.00000000000000E+00   0.00000000000000E+00   0.00000000000000E+00
      0.00000000000000E+00  -1.16999994720114E-16
      4.50000000000000E-01
      0.00000000000000E+00   0.00000000000000E+00   0.00000000000000E+00   0.00000000000000E+00  -7.21356901501822E-14
     -2.36751131102091E-10  -2.36823266792241E-10  -7.44542643575272E-18   1.80000000000000E-01   1.80000000000000E-01
      0.00000000000000E+00   0.00000000000000E+00   0.00000000000000E+00   0.00000000000000E+00   0.00000000000000E+00
      1.10940324827368E-16   6.00000000000000E-02   6.00000000000000E-02   0.00000000000000E+00   0.00000000000000E+00
      2.36817839787972E-10   5.42700426855730E-15   2.36823266792241E-10   1.50736958569313E-17   4.00000000000000E-02
      4.00000000000000E-02   0.00000000000000E+00   0.00000000000000E+00   0.00000000000000E+00   0.00000000000000E+00
      0.00000000000000E+00  -1.18568594248546E-16
      4.65000000000000E-01
      0.00000000000000E+00   0.00000000000000E+00   0.00000000000000E+00   0.00000000000000E+00  -7.31733944989858E-14
     -2.43941018026513E-10  -2.44014191421012E-10  -7.52102279458603E-18   1.86000000000000E-01   1.86000000000000E-01
      0.00000000000000E+00   0.00000000000000E+00   0.00000000000000E+00   0.00000000000000E+00   0.00000000000000E+00
      1.12650072207496E-16   6.00000000000000E-02   6.00000000000000E-02   0.00000000000000E+00   0.00000000000000E+00
      2.44008804651505E-10   5.38676950674675E-15   2.44014191421012E-10   1.50083833155083E-17   4.00000000000000E-02
      4.00000000000000E-02   0.00000000000000E+00   0.00000000000000E+00   0.00000000000000E+00   0.00000000000000E+00
      0.00000000000000E+00  -1.20137432728419E-16
      4.80000000000000E-01
      0.00000000000000E+00   0.00000000000000E+00   0.00000000000000E+00   0.00000000000000E+00  -7.42100774619870E-14
     -2.51445502898570E-10  -2.51519712976032E-10  -7.59624553870659E-18   1.92000000000000E-01   1.92000000000000E-01
      0.00000000000000E+00   0.00000000000000E+00   0.00000000000000E+00   0.00000000000000E+00   0.00000000000000E+00
      1.14359599962421E-16   6.00000000000000E-02   6.00000000000000E-02   0.00000000000000E+00   0.00000000000000E+00
      2.51514366526550E-10   5.34644948213345E-15   2.51519712976032E-10   1.49431443503573E-17   4.00000000000000E-02
      4.00000000000000E-02   0.00000000000000E+00   0.00000000000000E+00   0.00000000000000E+00   0.00000000000000E+00
      0.00000000000000E+00  -1.21706498774072E-16
      4.95000000000000E-01
      0.00000000000000E+00   0.00000000000000E+00   0.00000000000000E+00   0.00000000000000E+00  -7.52457610538386E-14
     -2.59286406177476E-10  -2.59361651938529E-10  -7.67110700291716E-18   1.98000000000000E-01   1.98000000000000E-01
      0.00000000000000E+00   0.00000000000000E+00   0.00000000000000E+00   0.00000000000000E+00   0.00000000000000E+00
      1.16068918184246E-16   6.00000000000000E-02   6.00000000000000E-02   0.00000000000000E+00   0.00000000000000E+00
      2.59356345930480E-10   5.30600805004320E-15   2.59361651938530E-10   1.48779704713430E-17   4.00000000000000E-02
      4.00000000000000E-02   0.00000000000000E+00   0.00000000000000E+00   0.00000000000000E+00   0.00000000000000E+00
      0.00000000000000E+00  -1.23275781652672E-16
      5.10000000000000E-01
      0.00000000000000E+00   0.00000000000000E+00   0.00000000000000E+00   0.00000000000000E+00  -7.62805578517327E-14
     -2.67488408338079E-10  -2.67564688895931E-10  -7.74561914077102E-18   2.04000000000000E-01   2.04000000000000E-01
      0.00000000000000E+00   0.00000000000000E+00   0.00000000000000E+00   0.00000000000000E+00   0.00000000000000E+00
      1.17778036410850E-16   6.00000000000000E-02   6.00000000000000E-02   0.00000000000000E+00   0.00000000000000E+00
      2.67559423431758E-10   5.26546417331199E-15   2.67564688895931E-10   1.48128539655860E-17   4.00000000000000E-02
      4.00000000000000E-02   0.00000000000000E+00   0.00000000000000E+00   0.00000000000000E+00   0.00000000000000E+00
      0.00000000000000E+00  -1.24845271235665E-16
      5.25000000000000E-01
      0.00000000000000E+00   0.00000000000000E+00   0.00000000000000E+00   0.00000000000000E+00  -7.73146732573017E-14
     -2.76079474865592E-10  -2.76156789538850E-10  -7.81979353282239E-18   2.10000000000000E-01   2.10000000000000E-01
      0.00000000000000E+00   0.00000000000000E+00   0.00000000000000E+00   0.00000000000000E+00   0.00000000000000E+00
      1.19486963666580E-16   6.00000000000000E-02   6.00000000000000E-02   0.00000000000000E+00   0.00000000000000E+00
      2.76151564732837E-10   5.22480601265610E-15   2.76156789538849E-10   1.47477878206595E-17   4.00000000000000E-02
      4.00000000000000E-02   0.00000000000000E+00   0.00000000000000E+00   0.00000000000000E+00   0.00000000000000E+00
      0.00000000000000E+00  -1.26414957954417E-16
      5.40000000000000E-01
      0.00000000000000E+00   0.00000000000000E+00   0.00000000000000E+00   0.00000000000000E+00  -7.83484065308004E-14
     -2.85091341135922E-10  -2.85169689542453E-10  -7.89364139506179E-18   2.16000000000000E-01   2.16000000000000E-01
      0.00000000000000E+00   0.00000000000000E+00   0.00000000000000E+00   0.00000000000000E+00   0.00000000000000E+00
      1.21195708499389E-16   6.00000000000000E-02   6.00000000000000E-02   0.00000000000000E+00   0.00000000000000E+00
      2.85164505544485E-10   5.18399796754442E-15   2.85169689542453E-10   1.46827656552908E-17   4.00000000000000E-02
      4.00000000000000E-02   0.00000000000000E+00   0.00000000000000E+00   0.00000000000000E+00   0.00000000000000E+00
      0.00000000000000E+00  -1.27984832759618E-16
      5.55000000000000E-01
      0.00000000000000E+00   0.00000000000000E+00   0.00000000000000E+00   0.00000000000000E+00  -7.93821506195709E-14