DF-ISE text

Info {
  version   = 1.0
  type      = xyplot
  datasets  = [
    "time"
    "source OuterVoltage" "source InnerVoltage" "source QuasiFermiPotential" "source DisplacementCurrent" "source eCurrent"
    "source hCurrent" "source TotalCurrent" "source Charge" "topGate OuterVoltage" "topGate InnerVoltage"
    "topGate QuasiFermiPotential" "topGate DisplacementCurrent" "topGate eCurrent" "topGate hCurrent" "topGate TotalCurrent"
    "topGate Charge" "drain OuterVoltage" "drain InnerVoltage" "drain QuasiFermiPotential" "drain DisplacementCurrent"
    "drain eCurrent" "drain hCurrent" "drain TotalCurrent" "drain Charge" "bottomGate OuterVoltage"
    "bottomGate InnerVoltage" "bottomGate QuasiFermiPotential" "bottomGate DisplacementCurrent" "bottomGate eCurrent" "bottomGate hCurrent"
    "bottomGate TotalCurrent" "bottomGate Charge" ]
  functions = [
    Time
    OuterVoltage InnerVoltage QuasiFermiPotential DisplacementCurrent eCurrent
    hCurrent TotalCurrent Charge OuterVoltage InnerVoltage
    QuasiFermiPotential DisplacementCurrent eCurrent hCurrent TotalCurrent
    Charge OuterVoltage InnerVoltage QuasiFermiPotential DisplacementCurrent
    eCurrent hCurrent TotalCurrent Charge OuterVoltage
    InnerVoltage QuasiFermiPotential DisplacementCurrent eCurrent hCurrent
    TotalCurrent Charge ]
}

Data {
      1.50000000000000E-02
      0.00000000000000E+00   0.00000000000000E+00   0.00000000000000E+00   0.00000000000000E+00  -1.73981765233237E-13
     -8.92197249573654E-12  -9.09595426096978E-12  -1.14467237299976E-17   6.00000000000000E-03   6.00000000000000E-03
      0.00000000000000E+00   0.00000000000000E+00   0.00000000000000E+00   0.00000000000000E+00   0.00000000000000E+00
     -1.70664240091704E-17   2.80000000000000E-01   2.80000000000000E-01   0.00000000000000E+00   0.00000000000000E+00
      9.08924805945140E-12   6.70620151837105E-15   9.09595426096977E-12   1.60714310247501E-17   6.00000000000000E-02
      6.00000000000000E-02   0.00000000000000E+00   0.00000000000000E+00   0.00000000000000E+00   0.00000000000000E+00
      0.00000000000000E+00   1.24417167144179E-17
      3.00000000000000E-02
      0.00000000000000E+00   0.00000000000000E+00   0.00000000000000E+00   0.00000000000000E+00  -1.75835170518482E-13
     -7.97431107189630E-12  -8.15014624241478E-12  -1.15126586638022E-17   1.20000000000000E-02   1.20000000000000E-02
      0.00000000000000E+00   0.00000000000000E+00   0.00000000000000E+00   0.00000000000000E+00   0.00000000000000E+00
     -1.53619962626447E-17   2.80000000000000E-01   2.80000000000000E-01   0.00000000000000E+00   0.00000000000000E+00
      8.14348259300017E-12   6.66364941462638E-15   8.15014624241479E-12   1.60071927872128E-17   6.00000000000000E-02
      6.00000000000000E-02   0.00000000000000E+00   0.00000000000000E+00   0.00000000000000E+00   0.00000000000000E+00
      0.00000000000000E+00   1.08674621392341E-17
      4.50000000000000E-02
      0.00000000000000E+00   0.00000000000000E+00   0.00000000000000E+00   0.00000000000000E+00  -1.77694750516657E-13
     -7.14142139750485E-12  -7.31911614802151E-12  -1.15785381940941E-17   1.80000000000000E-02   1.80000000000000E-02
      0.00000000000000E+00   0.00000000000000E+00   0.00000000000000E+00   0.00000000000000E+00   0.00000000000000E+00
     -1.36575920052313E-17   2.80000000000000E-01   2.80000000000000E-01   0.00000000000000E+00   0.00000000000000E+00
      7.31249525969585E-12   6.62088832565573E-15   7.31911614802151E-12   1.59429461178788E-17   6.00000000000000E-02
      6.00000000000000E-02   0.00000000000000E+00   0.00000000000000E+00   0.00000000000000E+00   0.00000000000000E+00
      0.00000000000000E+00   9.29318408144655E-18
      6.00000000000000E-02
      0.00000000000000E+00   0.00000000000000E+00   0.00000000000000E+00   0.00000000000000E+00  -1.79560407046354E-13
     -6.41062396572008E-12  -6.59018437276644E-12  -1.16443640041811E-17   2.40000000000000E-02   2.40000000000000E-02
      0.00000000000000E+00   0.00000000000000E+00   0.00000000000000E+00   0.00000000000000E+00   0.00000000000000E+00
     -1.19532102876916E-17   2.80000000000000E-01   2.80000000000000E-01   0.00000000000000E+00   0.00000000000000E+00
      6.58360642502958E-12   6.57794773685768E-15   6.59018437276644E-12   1.58786908024793E-17   6.00000000000000E-02
      6.00000000000000E-02   0.00000000000000E+00   0.00000000000000E+00   0.00000000000000E+00   0.00000000000000E+00
      0.00000000000000E+00   7.71888348939337E-18
      7.50000000000000E-02
      0.00000000000000E+00   0.00000000000000E+00   0.00000000000000E+00   0.00000000000000E+00  -1.81432043173288E-13
     -5.77053299414765E-12  -5.95196503732094E-12  -1.17101377204402E-17   3.00000000000000E-02   3.00000000000000E-02
      0.00000000000000E+00   0.00000000000000E+00   0.00000000000000E+00   0.00000000000000E+00   0.00000000000000E+00
     -1.02488501872456E-17   2.80000000000000E-01   2.80000000000000E-01   0.00000000000000E+00   0.00000000000000E+00
      5.94543018351732E-12   6.53485380360969E-15   5.95196503732093E-12   1.58144266226135E-17   6.00000000000000E-02
      6.00000000000000E-02   0.00000000000000E+00   0.00000000000000E+00   0.00000000000000E+00   0.00000000000000E+00
      0.00000000000000E+00   6.14456128507221E-18
      9.00000000000000E-02
      0.00000000000000E+00   0.00000000000000E+00   0.00000000000000E+00   0.00000000000000E+00  -1.83309563225635E-13
     -5.21094833062464E-12  -5.39425789385027E-12  -1.17758609143616E-17   3.60000000000000E-02   3.60000000000000E-02
      0.00000000000000E+00   0.00000000000000E+00   0.00000000000000E+00   0.00000000000000E+00   0.00000000000000E+00
     -8.54451080637121E-18   2.80000000000000E-01   2.80000000000000E-01   0.00000000000000E+00   0.00000000000000E+00
      5.38776626418181E-12   6.49162966846686E-15   5.39425789385028E-12   1.57501533554071E-17   6.00000000000000E-02
      6.00000000000000E-02   0.00000000000000E+00   0.00000000000000E+00   0.00000000000000E+00   0.00000000000000E+00
      0.00000000000000E+00   4.57021836532576E-18
      1.05000000000000E-01
      0.00000000000000E+00   0.00000000000000E+00   0.00000000000000E+00   0.00000000000000E+00  -1.85192872806154E-13
     -4.72275467144237E-12  -4.90794754424852E-12  -1.18415351045186E-17   4.20000000000000E-02   4.20000000000000E-02
      0.00000000000000E+00   0.00000000000000E+00   0.00000000000000E+00   0.00000000000000E+00   0.00000000000000E+00
     -6.84019127164793E-18   2.80000000000000E-01   2.80000000000000E-01   0.00000000000000E+00   0.00000000000000E+00
      4.90149924842854E-12   6.44829581998456E-15   4.90794754424853E-12   1.56858707731815E-17   6.00000000000000E-02
      6.00000000000000E-02   0.00000000000000E+00   0.00000000000000E+00   0.00000000000000E+00   0.00000000000000E+00
      0.00000000000000E+00   2.99585560298500E-18
      1.20000000000000E-01
      0.00000000000000E+00   0.00000000000000E+00   0.00000000000000E+00   0.00000000000000E+00  -1.87081878801457E-13
     -4.29782795192203E-12  -4.48490983072348E-12  -1.19071617584651E-17   4.80000000000000E-02   4.80000000000000E-02
      0.00000000000000E+00   0.00000000000000E+00   0.00000000000000E+00   0.00000000000000E+00   0.00000000000000E+00
     -5.13589073264151E-18   2.80000000000000E-01   2.80000000000000E-01   0.00000000000000E+00   0.00000000000000E+00
      4.47850496027665E-12   6.40487044683957E-15   4.48490983072349E-12   1.56215786431337E-17   6.00000000000000E-02
      6.00000000000000E-02   0.00000000000000E+00   0.00000000000000E+00   0.00000000000000E+00   0.00000000000000E+00
      0.00000000000000E+00   1.42147384797285E-18
      1.35000000000000E-01
      0.00000000000000E+00   0.00000000000000E+00   0.00000000000000E+00   0.00000000000000E+00  -1.88976489388775E-13
     -3.92894876374190E-12  -4.11792525313068E-12  -1.19727422945648E-17   5.40000000000000E-02   5.40000000000000E-02
      0.00000000000000E+00   0.00000000000000E+00   0.00000000000000E+00   0.00000000000000E+00   0.00000000000000E+00
     -3.43160836082811E-18   2.80000000000000E-01   2.80000000000000E-01   0.00000000000000E+00   0.00000000000000E+00
      4.11156388345802E-12   6.36136967266246E-15   4.11792525313068E-12   1.55572767270229E-17   6.00000000000000E-02
      6.00000000000000E-02   0.00000000000000E+00   0.00000000000000E+00   0.00000000000000E+00   0.00000000000000E+00
      0.00000000000000E+00  -1.52926071629976E-19
      1.50000000000000E-01
      0.00000000000000E+00   0.00000000000000E+00   0.00000000000000E+00   0.00000000000000E+00  -1.90876614040521E-13
     -3.60972265009715E-12  -3.80059926413767E-12  -1.20382780837529E-17   6.00000000000000E-02   6.00000000000000E-02
      0.00000000000000E+00   0.00000000000000E+00   0.00000000000000E+00   0.00000000000000E+00   0.00000000000000E+00
     -1.72734334855513E-18   2.80000000000000E-01   2.80000000000000E-01   0.00000000000000E+00   0.00000000000000E+00
      3.79428145632226E-12   6.31780781542097E-15   3.80059926413768E-12   1.54929647808626E-17   6.00000000000000E-02
      6.00000000000000E-02   0.00000000000000E+00   0.00000000000000E+00   0.00000000000000E+00   0.00000000000000E+00
      0.00000000000000E+00  -1.72734334855458E-18
      1.65000000000000E-01
      0.00000000000000E+00   0.00000000000000E+00   0.00000000000000E+00   0.00000000000000E+00  -1.92782163526868E-13
     -3.33450712791656E-12  -3.52728929144343E-12  -1.21037704512337E-17   6.60000000000000E-02   6.60000000000000E-02
      0.00000000000000E+00   0.00000000000000E+00   0.00000000000000E+00   0.00000000000000E+00   0.00000000000000E+00
     -2.30949080368090E-20   2.80000000000000E-01   2.80000000000000E-01   0.00000000000000E+00   0.00000000000000E+00
      3.52101509381814E-12   6.27419762529153E-15   3.52728929144343E-12   1.54286425546178E-17   6.00000000000000E-02
      6.00000000000000E-02   0.00000000000000E+00   0.00000000000000E+00   0.00000000000000E+00   0.00000000000000E+00
      0.00000000000000E+00  -3.30177719534730E-18
      1.80000000000000E-01
      0.00000000000000E+00   0.00000000000000E+00   0.00000000000000E+00   0.00000000000000E+00  -1.94693049916603E-13
     -3.09834528659367E-12  -3.29303833651028E-12  -1.21692206781154E-17   7.20000000000000E-02   7.20000000000000E-02
      0.00000000000000E+00   0.00000000000000E+00   0.00000000000000E+00   0.00000000000000E+00   0.00000000000000E+00
      1.68113772961735E-18   2.80000000000000E-01   2.80000000000000E-01   0.00000000000000E+00   0.00000000000000E+00
      3.28680778607728E-12   6.23055043299461E-15   3.29303833651028E-12   1.53643097919028E-17   6.00000000000000E-02
      6.00000000000000E-02   0.00000000000000E+00   0.00000000000000E+00   0.00000000000000E+00   0.00000000000000E+00
      0.00000000000000E+00  -4.87622684340478E-18
      1.95000000000000E-01
      0.00000000000000E+00   0.00000000000000E+00   0.00000000000000E+00   0.00000000000000E+00  -1.96609186576434E-13
     -2.89690581507967E-12  -3.09351500165611E-12  -1.22346300029857E-17   7.80000000000000E-02   7.80000000000000E-02
      0.00000000000000E+00   0.00000000000000E+00   0.00000000000000E+00   0.00000000000000E+00   0.00000000000000E+00
      3.38535531534327E-18   2.80000000000000E-01   2.80000000000000E-01   0.00000000000000E+00   0.00000000000000E+00
      3.08732812528683E-12   6.18687636928291E-15   3.09351500165611E-12   1.52999662296816E-17   6.00000000000000E-02
      6.00000000000000E-02   0.00000000000000E+00   0.00000000000000E+00   0.00000000000000E+00   0.00000000000000E+00
      0.00000000000000E+00  -6.45069154203919E-18
      2.10000000000000E-01
      0.00000000000000E+00   0.00000000000000E+00   0.00000000000000E+00   0.00000000000000E+00  -1.98530488168893E-13
     -2.72642931285291E-12  -2.92495980102180E-12  -1.22999996234288E-17   8.40000000000000E-02   8.40000000000000E-02
      0.00000000000000E+00   0.00000000000000E+00   0.00000000000000E+00   0.00000000000000E+00   0.00000000000000E+00
      5.08955858303389E-18   2.80000000000000E-01   2.80000000000000E-01   0.00000000000000E+00   0.00000000000000E+00
      2.91881661656040E-12   6.14318446140312E-15   2.92495980102181E-12   1.52356115979668E-17   6.00000000000000E-02
      6.00000000000000E-02   0.00000000000000E+00   0.00000000000000E+00   0.00000000000000E+00   0.00000000000000E+00
      0.00000000000000E+00  -8.02517055757190E-18
      2.25000000000000E-01
      0.00000000000000E+00   0.00000000000000E+00   0.00000000000000E+00   0.00000000000000E+00  -2.00456870649002E-13
     -2.58368074646524E-12  -2.78413761711424E-12  -1.23653306974873E-17   9.00000000000000E-02   9.00000000000000E-02
      0.00000000000000E+00   0.00000000000000E+00   0.00000000000000E+00   0.00000000000000E+00   0.00000000000000E+00
      6.79374825042323E-18   2.80000000000000E-01   2.80000000000000E-01   0.00000000000000E+00   0.00000000000000E+00
      2.77803813433253E-12   6.09948278171499E-15   2.78413761711424E-12   1.51712456195178E-17   6.00000000000000E-02
      6.00000000000000E-02   0.00000000000000E+00   0.00000000000000E+00   0.00000000000000E+00   0.00000000000000E+00
      0.00000000000000E+00  -9.59966317245378E-18
      2.40000000000000E-01
      0.00000000000000E+00   0.00000000000000E+00   0.00000000000000E+00   0.00000000000000E+00  -2.02388251259812E-13
     -2.46590792062611E-12  -2.66829617188592E-12  -1.24306243450694E-17   9.60000000000000E-02   9.60000000000000E-02
      0.00000000000000E+00   0.00000000000000E+00   0.00000000000000E+00   0.00000000000000E+00   0.00000000000000E+00
      8.49792501994465E-18   2.80000000000000E-01   2.80000000000000E-01   0.00000000000000E+00   0.00000000000000E+00
      2.66224039331226E-12   6.05577857366280E-15   2.66829617188592E-12   1.51068680095357E-17   6.00000000000000E-02
      6.00000000000000E-02   0.00000000000000E+00   0.00000000000000E+00   0.00000000000000E+00   0.00000000000000E+00
      0.00000000000000E+00  -1.11741686844110E-17
      2.55000000000000E-01
      0.00000000000000E+00   0.00000000000000E+00   0.00000000000000E+00   0.00000000000000E+00  -2.04324548526891E-13
     -2.37080584192611E-12  -2.57513039045300E-12  -1.24958816493050E-17   1.02000000000000E-01   1.02000000000000E-01
      0.00000000000000E+00   0.00000000000000E+00   0.00000000000000E+00   0.00000000000000E+00   0.00000000000000E+00
      1.02020895795647E-17   2.80000000000000E-01   2.80000000000000E-01   0.00000000000000E+00   0.00000000000000E+00
      2.56911831211855E-12   6.01207833444974E-15   2.57513039045300E-12   1.50424784753547E-17   6.00000000000000E-02
      6.00000000000000E-02   0.00000000000000E+00   0.00000000000000E+00   0.00000000000000E+00   0.00000000000000E+00
      0.00000000000000E+00  -1.27486864056144E-17
      2.70000000000000E-01
      0.00000000000000E+00   0.00000000000000E+00   0.00000000000000E+00   0.00000000000000E+00  -2.06265682251858E-13
     -2.29648686389159E-12  -2.50275254614345E-12  -1.25611036578516E-17   1.08000000000000E-01   1.08000000000000E-01
      0.00000000000000E+00   0.00000000000000E+00   0.00000000000000E+00   0.00000000000000E+00   0.00000000000000E+00
      1.19062426035944E-17   2.80000000000000E-01   2.80000000000000E-01   0.00000000000000E+00   0.00000000000000E+00
      2.49678415823929E-12   5.96838790415562E-15   2.50275254614345E-12   1.49780767161289E-17   6.00000000000000E-02
      6.00000000000000E-02   0.00000000000000E+00   0.00000000000000E+00   0.00000000000000E+00   0.00000000000000E+00
      0.00000000000000E+00  -1.43232156618717E-17
      2.85000000000000E-01
      0.00000000000000E+00   0.00000000000000E+00   0.00000000000000E+00   0.00000000000000E+00  -2.08211573505014E-13
     -2.24145651379099E-12  -2.44966808729600E-12  -1.26262913841520E-17   1.14000000000000E-01   1.14000000000000E-01
      0.00000000000000E+00   0.00000000000000E+00   0.00000000000000E+00   0.00000000000000E+00   0.00000000000000E+00
      1.36103847534784E-17   2.80000000000000E-01   2.80000000000000E-01   0.00000000000000E+00   0.00000000000000E+00
      2.44374337474516E-12   5.92471255084779E-15   2.44966808729600E-12   1.49136624225139E-17   6.00000000000000E-02
      6.00000000000000E-02   0.00000000000000E+00   0.00000000000000E+00   0.00000000000000E+00   0.00000000000000E+00
      0.00000000000000E+00  -1.58977557918403E-17
      3.00000000000000E-01
      0.00000000000000E+00   0.00000000000000E+00   0.00000000000000E+00   0.00000000000000E+00  -2.10162144617128E-13
     -2.20459491447648E-12  -2.41475705909360E-12  -1.26914458086454E-17   1.20000000000000E-01   1.20000000000000E-01
      0.00000000000000E+00   0.00000000000000E+00   0.00000000000000E+00   0.00000000000000E+00   0.00000000000000E+00
      1.53145166785649E-17   2.80000000000000E-01   2.80000000000000E-01   0.00000000000000E+00   0.00000000000000E+00
      2.40887600206853E-12   5.88105702507424E-15   2.41475705909360E-12   1.48492352763408E-17   6.00000000000000E-02
      6.00000000000000E-02   0.00000000000000E+00   0.00000000000000E+00   0.00000000000000E+00   0.00000000000000E+00
      0.00000000000000E+00  -1.74723061462604E-17
      3.15000000000000E-01
      0.00000000000000E+00   0.00000000000000E+00   0.00000000000000E+00   0.00000000000000E+00  -2.12117319170381E-13
     -2.18514372838706E-12  -2.39726104755745E-12  -1.27565678799340E-17   1.26000000000000E-01   1.26000000000000E-01
      0.00000000000000E+00   0.00000000000000E+00   0.00000000000000E+00   0.00000000000000E+00   0.00000000000000E+00
      1.70186390168560E-17   2.80000000000000E-01   2.80000000000000E-01   0.00000000000000E+00   0.00000000000000E+00
      2.39142362193206E-12   5.83742562538335E-15   2.39726104755744E-12   1.47847949502841E-17   6.00000000000000E-02
      6.00000000000000E-02   0.00000000000000E+00   0.00000000000000E+00   0.00000000000000E+00   0.00000000000000E+00
      0.00000000000000E+00  -1.90468660872061E-17
      3.30000000000000E-01
      0.00000000000000E+00   0.00000000000000E+00   0.00000000000000E+00   0.00000000000000E+00  -2.14077021988559E-13
     -2.18269856523052E-12  -2.39677558721908E-12  -1.28216585159069E-17   1.32000000000000E-01   1.32000000000000E-01
      0.00000000000000E+00   0.00000000000000E+00   0.00000000000000E+00   0.00000000000000E+00   0.00000000000000E+00
      1.87227523957406E-17   2.80000000000000E-01   2.80000000000000E-01   0.00000000000000E+00   0.00000000000000E+00
      2.39098176497489E-12   5.79382224418678E-15   2.39677558721908E-12   1.47203411075206E-17   6.00000000000000E-02
      6.00000000000000E-02   0.00000000000000E+00   0.00000000000000E+00   0.00000000000000E+00   0.00000000000000E+00
      0.00000000000000E+00  -2.06214349873543E-17
      3.45000000000000E-01
      0.00000000000000E+00   0.00000000000000E+00   0.00000000000000E+00   0.00000000000000E+00  -2.16041179126383E-13
     -2.19720680984846E-12  -2.41324798897484E-12  -1.28867186048218E-17   1.38000000000000E-01   1.38000000000000E-01
      0.00000000000000E+00   0.00000000000000E+00   0.00000000000000E+00   0.00000000000000E+00   0.00000000000000E+00
      2.04268574327116E-17   2.80000000000000E-01   2.80000000000000E-01   0.00000000000000E+00   0.00000000000000E+00
      2.40749773856402E-12   5.75025041081433E-15   2.41324798897484E-12   1.46558734013801E-17   6.00000000000000E-02
      6.00000000000000E-02   0.00000000000000E+00   0.00000000000000E+00   0.00000000000000E+00   0.00000000000000E+00
      0.00000000000000E+00  -2.21960122292699E-17
      3.60000000000000E-01
      0.00000000000000E+00   0.00000000000000E+00   0.00000000000000E+00   0.00000000000000E+00  -2.18009717858162E-13
     -2.22897084195149E-12  -2.44698055980965E-12  -1.29517490063471E-17   1.44000000000000E-01   1.44000000000000E-01
      0.00000000000000E+00   0.00000000000000E+00   0.00000000000000E+00   0.00000000000000E+00   0.00000000000000E+00
      2.21309547360665E-17   2.80000000000000E-01   2.80000000000000E-01   0.00000000000000E+00   0.00000000000000E+00
      2.44127384647582E-12   5.70671333383153E-15   2.44698055980965E-12   1.45913914749857E-17   6.00000000000000E-02
      6.00000000000000E-02   0.00000000000000E+00   0.00000000000000E+00   0.00000000000000E+00   0.00000000000000E+00
      0.00000000000000E+00  -2.37705972047052E-17
      3.75000000000000E-01
      0.00000000000000E+00   0.00000000000000E+00   0.00000000000000E+00   0.00000000000000E+00  -2.19982566665601E-13
     -2.27865663462549E-12  -2.49863920129110E-12  -1.30167505525657E-17   1.50000000000000E-01   1.50000000000000E-01
      0.00000000000000E+00   0.00000000000000E+00   0.00000000000000E+00   0.00000000000000E+00   0.00000000000000E+00
      2.38350449055955E-17   2.80000000000000E-01   2.80000000000000E-01   0.00000000000000E+00   0.00000000000000E+00
      2.49297598736860E-12   5.66321392249488E-15   2.49863920129109E-12   1.45268949608844E-17   6.00000000000000E-02
      6.00000000000000E-02   0.00000000000000E+00   0.00000000000000E+00   0.00000000000000E+00   0.00000000000000E+00
      0.00000000000000E+00  -2.53451893139142E-17
      3.90000000000000E-01
      0.00000000000000E+00   0.00000000000000E+00   0.00000000000000E+00   0.00000000000000E+00  -2.21959655224857E-13
     -2.34730773362815E-12  -2.56926738885301E-12  -1.30817240489415E-17   1.56000000000000E-01   1.56000000000000E-01
      0.00000000000000E+00   0.00000000000000E+00   0.00000000000000E+00   0.00000000000000E+00   0.00000000000000E+00
      2.55391285332551E-17   2.80000000000000E-01   2.80000000000000E-01   0.00000000000000E+00   0.00000000000000E+00
      2.56364763402962E-12   5.61975482338683E-15   2.56926738885301E-12   1.44623834806660E-17   6.00000000000000E-02
      6.00000000000000E-02   0.00000000000000E+00   0.00000000000000E+00   0.00000000000000E+00   0.00000000000000E+00
      0.00000000000000E+00  -2.69197879649796E-17
      4.05000000000000E-01
      0.00000000000000E+00   0.00000000000000E+00   0.00000000000000E+00   0.00000000000000E+00  -2.23940914392845E-13
     -2.43636463410122E-12  -2.66030554849406E-12  -1.31466702752507E-17   1.62000000000000E-01   1.62000000000000E-01
      0.00000000000000E+00   0.00000000000000E+00   0.00000000000000E+00   0.00000000000000E+00   0.00000000000000E+00
      2.72432062038313E-17   2.80000000000000E-01   2.80000000000000E-01   0.00000000000000E+00   0.00000000000000E+00
      2.65472921005632E-12   5.57633843774024E-15   2.66030554849406E-12   1.43978566445699E-17   6.00000000000000E-02
      6.00000000000000E-02   0.00000000000000E+00   0.00000000000000E+00   0.00000000000000E+00   0.00000000000000E+00
      0.00000000000000E+00  -2.84943925731506E-17
      4.20000000000000E-01
      0.00000000000000E+00   0.00000000000000E+00   0.00000000000000E+00   0.00000000000000E+00  -2.25926276192719E-13
     -2.54768958547381E-12  -2.77361586166653E-12  -1.32115899864777E-17   1.68000000000000E-01   1.68000000000000E-01
      0.00000000000000E+00   0.00000000000000E+00   0.00000000000000E+00   0.00000000000000E+00   0.00000000000000E+00
      2.89472784955902E-17   2.80000000000000E-01   2.80000000000000E-01   0.00000000000000E+00   0.00000000000000E+00
      2.76808289472896E-12   5.53296693756937E-15   2.77361586166653E-12   1.43333140510806E-17   6.00000000000000E-02
      6.00000000000000E-02   0.00000000000000E+00   0.00000000000000E+00   0.00000000000000E+00   0.00000000000000E+00
      0.00000000000000E+00  -3.00690025601931E-17
      4.35000000000000E-01
      0.00000000000000E+00   0.00000000000000E+00   0.00000000000000E+00   0.00000000000000E+00  -2.27915673798595E-13
     -2.68359686865016E-12  -2.91151254244875E-12  -1.32764839136795E-17   1.74000000000000E-01   1.74000000000000E-01
      0.00000000000000E+00   0.00000000000000E+00   0.00000000000000E+00   0.00000000000000E+00   0.00000000000000E+00
      3.06513459809203E-17   2.80000000000000E-01   2.80000000000000E-01   0.00000000000000E+00   0.00000000000000E+00
      2.90602290016393E-12   5.48964228481951E-15   2.91151254244875E-12   1.42687552865079E-17   6.00000000000000E-02
      6.00000000000000E-02   0.00000000000000E+00   0.00000000000000E+00   0.00000000000000E+00   0.00000000000000E+00
      0.00000000000000E+00  -3.16436173537486E-17
      4.50000000000000E-01
      0.00000000000000E+00   0.00000000000000E+00   0.00000000000000E+00   0.00000000000000E+00  -2.29909041519491E-13
     -2.84688860195846E-12  -3.07679764347795E-12  -1.33413527648170E-17   1.80000000000000E-01   1.80000000000000E-01
      0.00000000000000E+00   0.00000000000000E+00   0.00000000000000E+00   0.00000000000000E+00   0.00000000000000E+00
      3.23554092269648E-17   2.80000000000000E-01   2.80000000000000E-01   0.00000000000000E+00   0.00000000000000E+00
      3.07135127723964E-12   5.44636623830984E-15   3.07679764347795E-12   1.42041799245542E-17   6.00000000000000E-02
      6.00000000000000E-02   0.00000000000000E+00   0.00000000000000E+00   0.00000000000000E+00   0.00000000000000E+00
      0.00000000000000E+00  -3.32182363867021E-17
      4.65000000000000E-01
      0.00000000000000E+00   0.00000000000000E+00   0.00000000000000E+00   0.00000000000000E+00  -2.31906314782425E-13
     -3.04089614369371E-12  -3.27280245847613E-12  -1.34061972255562E-17   1.86000000000000E-01   1.86000000000000E-01
      0.00000000000000E+00   0.00000000000000E+00   0.00000000000000E+00   0.00000000000000E+00   0.00000000000000E+00
      3.40594687962470E-17   2.80000000000000E-01   2.80000000000000E-01   0.00000000000000E+00   0.00000000000000E+00
      3.26739931811457E-12   5.40314036156374E-15   3.27280245847613E-12   1.41395875258672E-17   6.00000000000000E-02
      6.00000000000000E-02   0.00000000000000E+00   0.00000000000000E+00   0.00000000000000E+00   0.00000000000000E+00
      0.00000000000000E+00  -3.47928590965580E-17
      4.80000000000000E-01
      0.00000000000000E+00   0.00000000000000E+00   0.00000000000000E+00   0.00000000000000E+00  -2.33907430114789E-13
     -3.26952716920102E-12  -3.50343459931581E-12  -1.34710179600401E-17   1.92000000000000E-01   1.92000000000000E-01
      0.00000000000000E+00   0.00000000000000E+00   0.00000000000000E+00   0.00000000000000E+00   0.00000000000000E+00
      3.57635252472874E-17   2.80000000000000E-01   2.80000000000000E-01   0.00000000000000E+00   0.00000000000000E+00
      3.49807463328825E-12   5.35996602755536E-15   3.50343459931581E-12   1.40749776375757E-17   6.00000000000000E-02
      6.00000000000000E-02   0.00000000000000E+00   0.00000000000000E+00   0.00000000000000E+00   0.00000000000000E+00
      0.00000000000000E+00  -3.63674849248229E-17
      4.95000000000000E-01
      0.00000000000000E+00   0.00000000000000E+00   0.00000000000000E+00   0.00000000000000E+00  -2.35912325125822E-13
     -3.53731850928454E-12  -3.77323083441037E-12  -1.35358156116319E-17   1.98000000000000E-01   1.98000000000000E-01
      0.00000000000000E+00   0.00000000000000E+00   0.00000000000000E+00   0.00000000000000E+00   0.00000000000000E+00
      3.74675791352163E-17   2.80000000000000E-01   2.80000000000000E-01   0.00000000000000E+00   0.00000000000000E+00
      3.76791398999215E-12   5.31684441821336E-15   3.77323083441037E-12   1.40103497928101E-17   6.00000000000000E-02
      6.00000000000000E-02   0.00000000000000E+00   0.00000000000000E+00   0.00000000000000E+00   0.00000000000000E+00
      0.00000000000000E+00  -3.79421133163945E-17
      5.10000000000000E-01
      0.00000000000000E+00   0.00000000000000E+00   0.00000000000000E+00   0.00000000000000E+00  -2.37920938487360E-13
     -3.84949484420530E-12  -4.08741578269266E-12  -1.36005908036309E-17   2.04000000000000E-01   2.04000000000000E-01
      0.00000000000000E+00   0.00000000000000E+00   0.00000000000000E+00   0.00000000000000E+00   0.00000000000000E+00
      3.91716310123806E-17   2.80000000000000E-01   2.80000000000000E-01   0.00000000000000E+00   0.00000000000000E+00
      4.08214200617135E-12   5.27377652131497E-15   4.08741578269266E-12   1.39457035102054E-17   6.00000000000000E-02
      6.00000000000000E-02   0.00000000000000E+00   0.00000000000000E+00   0.00000000000000E+00   0.00000000000000E+00
      0.00000000000000E+00  -3.95167437189550E-17
      5.25000000000000E-01
      0.00000000000000E+00   0.00000000000000E+00   0.00000000000000E+00   0.00000000000000E+00  -2.39933209913749E-13
     -4.21203335359770E-12  -4.45196656351145E-12  -1.36653441399627E-17   2.10000000000000E-01   2.10000000000000E-01
      0.00000000000000E+00   0.00000000000000E+00   0.00000000000000E+00   0.00000000000000E+00   0.00000000000000E+00
      4.08756814289462E-17   2.80000000000000E-01   2.80000000000000E-01   0.00000000000000E+00   0.00000000000000E+00
      4.44673580038421E-12   5.23076312724477E-15   4.45196656351145E-12   1.38810382933857E-17   6.00000000000000E-02
      6.00000000000000E-02   0.00000000000000E+00   0.00000000000000E+00   0.00000000000000E+00   0.00000000000000E+00
      0.00000000000000E+00  -4.10913755823692E-17
      5.40000000000000E-01
      0.00000000000000E+00   0.00000000000000E+00   0.00000000000000E+00   0.00000000000000E+00  -2.41949080140869E-13
     -4.63173442726707E-12  -4.87368350740794E-12  -1.37300762058431E-17   2.16000000000000E-01   2.16000000000000E-01
      0.00000000000000E+00   0.00000000000000E+00   0.00000000000000E+00   0.00000000000000E+00   0.00000000000000E+00
      4.25797309334979E-17   2.80000000000000E-01   2.80000000000000E-01   0.00000000000000E+00   0.00000000000000E+00
      4.86849570259345E-12   5.18780481448677E-15   4.87368350740794E-12   1.38163536304306E-17   6.00000000000000E-02
      6.00000000000000E-02   0.00000000000000E+00   0.00000000000000E+00   0.00000000000000E+00   0.00000000000000E+00
      0.00000000000000E+00  -4.26660083580855E-17
      5.55000000000000E-01
      0.00000000000000E+00   0.00000000000000E+00   0.00000000000000E+00   0.00000000000000E+00  -2.43968490904413E-13