DF-ISE text

Info {
  version   = 1.0
  type      = xyplot
  datasets  = [
    "time"
    "source OuterVoltage" "source InnerVoltage" "source QuasiFermiPotential" "source DisplacementCurrent" "source eCurrent"
    "source hCurrent" "source TotalCurrent" "source Charge" "topGate OuterVoltage" "topGate InnerVoltage"
    "topGate QuasiFermiPotential" "topGate DisplacementCurrent" "topGate eCurrent" "topGate hCurrent" "topGate TotalCurrent"
    "topGate Charge" "drain OuterVoltage" "drain InnerVoltage" "drain QuasiFermiPotential" "drain DisplacementCurrent"
    "drain eCurrent" "drain hCurrent" "drain TotalCurrent" "drain Charge" "bottomGate OuterVoltage"
    "bottomGate InnerVoltage" "bottomGate QuasiFermiPotential" "bottomGate DisplacementCurrent" "bottomGate eCurrent" "bottomGate hCurrent"
    "bottomGate TotalCurrent" "bottomGate Charge" ]
  functions = [
    Time
    OuterVoltage InnerVoltage QuasiFermiPotential DisplacementCurrent eCurrent
    hCurrent TotalCurrent Charge OuterVoltage InnerVoltage
    QuasiFermiPotential DisplacementCurrent eCurrent hCurrent TotalCurrent
    Charge OuterVoltage InnerVoltage QuasiFermiPotential DisplacementCurrent
    eCurrent hCurrent TotalCurrent Charge OuterVoltage
    InnerVoltage QuasiFermiPotential DisplacementCurrent eCurrent hCurrent
    TotalCurrent Charge ]
}

Data {
      1.50000000000000E-02
      0.00000000000000E+00   0.00000000000000E+00   0.00000000000000E+00   0.00000000000000E+00  -2.59761721918390E-13
     -6.82360656104563E-11  -6.84958273323747E-11  -1.43762666684521E-17   6.00000000000000E-03   6.00000000000000E-03
      0.00000000000000E+00   0.00000000000000E+00   0.00000000000000E+00   0.00000000000000E+00   0.00000000000000E+00
     -8.61548219542166E-17   1.20000000000000E-01   1.20000000000000E-01   0.00000000000000E+00   0.00000000000000E+00
      6.84933164760686E-11   2.51085630600568E-15   6.84958273323746E-11   9.63704026994161E-18   3.30000000000000E-01
      3.30000000000000E-01   0.00000000000000E+00   0.00000000000000E+00   0.00000000000000E+00   0.00000000000000E+00
      0.00000000000000E+00   9.08940483527271E-17
      3.00000000000000E-02
      0.00000000000000E+00   0.00000000000000E+00   0.00000000000000E+00   0.00000000000000E+00  -2.61794670815187E-13
     -6.54230184854728E-11  -6.56848131562880E-11  -1.44407984963509E-17   1.20000000000000E-02   1.20000000000000E-02
      0.00000000000000E+00   0.00000000000000E+00   0.00000000000000E+00   0.00000000000000E+00   0.00000000000000E+00
     -8.44489597749045E-17   1.20000000000000E-01   1.20000000000000E-01   0.00000000000000E+00   0.00000000000000E+00
      6.56823217644287E-11   2.49139185930355E-15   6.56848131562880E-11   9.56852765161606E-18   3.30000000000000E-01
      3.30000000000000E-01   0.00000000000000E+00   0.00000000000000E+00   0.00000000000000E+00   0.00000000000000E+00
      0.00000000000000E+00   8.93212306196393E-17
      4.50000000000000E-02
      0.00000000000000E+00   0.00000000000000E+00   0.00000000000000E+00   0.00000000000000E+00  -2.63830451458763E-13
     -6.27690581090378E-11  -6.30328885604966E-11  -1.45053148165867E-17   1.80000000000000E-02   1.80000000000000E-02
      0.00000000000000E+00   0.00000000000000E+00   0.00000000000000E+00   0.00000000000000E+00   0.00000000000000E+00
     -8.27430331335495E-17   1.20000000000000E-01   1.20000000000000E-01   0.00000000000000E+00   0.00000000000000E+00
      6.30304173072960E-11   2.47125320053417E-15   6.30328885604965E-11   9.49987040199906E-18   3.30000000000000E-01
      3.30000000000000E-01   0.00000000000000E+00   0.00000000000000E+00   0.00000000000000E+00   0.00000000000000E+00
      0.00000000000000E+00   8.77484775481371E-17
      6.00000000000000E-02
      0.00000000000000E+00   0.00000000000000E+00   0.00000000000000E+00   0.00000000000000E+00  -2.65869026988041E-13
     -6.02626960570261E-11  -6.05285650840141E-11  -1.45698160207095E-17   2.40000000000000E-02   2.40000000000000E-02
      0.00000000000000E+00   0.00000000000000E+00   0.00000000000000E+00   0.00000000000000E+00   0.00000000000000E+00
     -8.10370392583498E-17   1.20000000000000E-01   1.20000000000000E-01   0.00000000000000E+00   0.00000000000000E+00
      6.05261146695942E-11   2.45041442002913E-15   6.05285650840142E-11   9.43106335344372E-18   3.30000000000000E-01
      3.30000000000000E-01   0.00000000000000E+00   0.00000000000000E+00   0.00000000000000E+00   0.00000000000000E+00
      0.00000000000000E+00   8.61757919256155E-17
      7.50000000000000E-02
      0.00000000000000E+00   0.00000000000000E+00   0.00000000000000E+00   0.00000000000000E+00  -2.67910359781269E-13
     -5.78936168727214E-11  -5.81615272325027E-11  -1.46343024885678E-17   3.00000000000000E-02   3.00000000000000E-02
      0.00000000000000E+00   0.00000000000000E+00   0.00000000000000E+00   0.00000000000000E+00   0.00000000000000E+00
     -7.93309752784334E-17   1.20000000000000E-01   1.20000000000000E-01   0.00000000000000E+00   0.00000000000000E+00
      5.81590983726746E-11   2.42885982802162E-15   5.81615272325027E-11   9.36210112739825E-18   3.30000000000000E-01
      3.30000000000000E-01   0.00000000000000E+00   0.00000000000000E+00   0.00000000000000E+00   0.00000000000000E+00
      0.00000000000000E+00   8.46031766396030E-17
      9.00000000000000E-02
      0.00000000000000E+00   0.00000000000000E+00   0.00000000000000E+00   0.00000000000000E+00  -2.69954411617673E-13
     -5.56525638805761E-11  -5.59225182921938E-11  -1.46987745886782E-17   3.60000000000000E-02   3.60000000000000E-02
      0.00000000000000E+00   0.00000000000000E+00   0.00000000000000E+00   0.00000000000000E+00   0.00000000000000E+00
     -7.76248382185492E-17   1.20000000000000E-01   1.20000000000000E-01   0.00000000000000E+00   0.00000000000000E+00
      5.59201117083640E-11   2.40658382980538E-15   5.59225182921938E-11   9.29297812411529E-18   3.30000000000000E-01
      3.30000000000000E-01   0.00000000000000E+00   0.00000000000000E+00   0.00000000000000E+00   0.00000000000000E+00
      0.00000000000000E+00   8.30306346831121E-17
      1.05000000000000E-01
      0.00000000000000E+00   0.00000000000000E+00   0.00000000000000E+00   0.00000000000000E+00  -2.72001143819844E-13
     -5.35312348326507E-11  -5.38032359764705E-11  -1.47632326785797E-17   4.20000000000000E-02   4.20000000000000E-02
      0.00000000000000E+00   0.00000000000000E+00   0.00000000000000E+00   0.00000000000000E+00   0.00000000000000E+00
     -7.59186249934319E-17   1.20000000000000E-01   1.20000000000000E-01   0.00000000000000E+00   0.00000000000000E+00
      5.38008523858429E-11   2.38359062769110E-15   5.38032359764705E-11   9.22368851169853E-18   3.30000000000000E-01
      3.30000000000000E-01   0.00000000000000E+00   0.00000000000000E+00   0.00000000000000E+00   0.00000000000000E+00
      0.00000000000000E+00   8.14581691603130E-17
      1.20000000000000E-01
      0.00000000000000E+00   0.00000000000000E+00   0.00000000000000E+00   0.00000000000000E+00  -2.74050517113141E-13
     -5.15221868601989E-11  -5.17962373773121E-11  -1.48276771051726E-17   4.80000000000000E-02   4.80000000000000E-02
      0.00000000000000E+00   0.00000000000000E+00   0.00000000000000E+00   0.00000000000000E+00   0.00000000000000E+00
     -7.42123324018115E-17   1.20000000000000E-01   1.20000000000000E-01   0.00000000000000E+00   0.00000000000000E+00
      5.17938774835605E-11   2.35989375159569E-15   5.17962373773121E-11   9.15422621442793E-18   3.30000000000000E-01
      3.30000000000000E-01   0.00000000000000E+00   0.00000000000000E+00   0.00000000000000E+00   0.00000000000000E+00
      0.00000000000000E+00   7.98857832925561E-17
      1.35000000000000E-01
      0.00000000000000E+00   0.00000000000000E+00   0.00000000000000E+00   0.00000000000000E+00  -2.76102492166017E-13
     -4.96187502294821E-11  -4.98948527216481E-11  -1.48921082050438E-17   5.40000000000000E-02   5.40000000000000E-02
      0.00000000000000E+00   0.00000000000000E+00   0.00000000000000E+00   0.00000000000000E+00   0.00000000000000E+00
     -7.25059571200331E-17   1.20000000000000E-01   1.20000000000000E-01   0.00000000000000E+00   0.00000000000000E+00
      4.98925172062146E-11   2.33551543345316E-15   4.98948527216480E-11   9.08458490029829E-18   3.30000000000000E-01
      3.30000000000000E-01   0.00000000000000E+00   0.00000000000000E+00   0.00000000000000E+00   0.00000000000000E+00
      0.00000000000000E+00   7.83134804247787E-17
      1.50000000000000E-01
      0.00000000000000E+00   0.00000000000000E+00   0.00000000000000E+00   0.00000000000000E+00  -2.78157029090931E-13
     -4.78149504220430E-11  -4.80931074511339E-11  -1.49565263047769E-17   6.00000000000000E-02   6.00000000000000E-02
      0.00000000000000E+00   0.00000000000000E+00   0.00000000000000E+00   0.00000000000000E+00   0.00000000000000E+00
     -7.07994956952499E-17   1.20000000000000E-01   1.20000000000000E-01   0.00000000000000E+00   0.00000000000000E+00
      4.80907969652981E-11   2.31048583577183E-15   4.80931074511339E-11   9.01475796769845E-18   3.30000000000000E-01
      3.30000000000000E-01   0.00000000000000E+00   0.00000000000000E+00   0.00000000000000E+00   0.00000000000000E+00
      0.00000000000000E+00   7.67412640323284E-17
      1.65000000000000E-01
      0.00000000000000E+00   0.00000000000000E+00   0.00000000000000E+00   0.00000000000000E+00  -2.80214087582305E-13
     -4.61054380769733E-11  -4.63856521645556E-11  -1.50209317212484E-17   6.60000000000000E-02   6.60000000000000E-02
      0.00000000000000E+00   0.00000000000000E+00   0.00000000000000E+00   0.00000000000000E+00   0.00000000000000E+00
     -6.90929445381475E-17   1.20000000000000E-01   1.20000000000000E-01   0.00000000000000E+00   0.00000000000000E+00
      4.63833673223961E-11   2.28484215944567E-15   4.63856521645556E-11   8.94473853115095E-18   3.30000000000000E-01
      3.30000000000000E-01   0.00000000000000E+00   0.00000000000000E+00   0.00000000000000E+00   0.00000000000000E+00
      0.00000000000000E+00   7.51691377282449E-17
      1.80000000000000E-01
      0.00000000000000E+00   0.00000000000000E+00   0.00000000000000E+00   0.00000000000000E+00  -2.82273627302757E-13
     -4.44854263474967E-11  -4.47676999747995E-11  -1.50853247619099E-17   7.20000000000000E-02   7.20000000000000E-02
      0.00000000000000E+00   0.00000000000000E+00   0.00000000000000E+00   0.00000000000000E+00   0.00000000000000E+00
     -6.73862999151531E-17   1.20000000000000E-01   1.20000000000000E-01   0.00000000000000E+00   0.00000000000000E+00
      4.47654413471482E-11   2.25862765117535E-15   4.47676999747994E-11   8.87451940602235E-18   3.30000000000000E-01
      3.30000000000000E-01   0.00000000000000E+00   0.00000000000000E+00   0.00000000000000E+00   0.00000000000000E+00
      0.00000000000000E+00   7.35971052710407E-17
      1.95000000000000E-01
      0.00000000000000E+00   0.00000000000000E+00   0.00000000000000E+00   0.00000000000000E+00  -2.84335607402805E-13
     -4.29506352376328E-11  -4.32349708450356E-11  -1.51497057250570E-17   7.80000000000000E-02   7.80000000000000E-02
      0.00000000000000E+00   0.00000000000000E+00   0.00000000000000E+00   0.00000000000000E+00   0.00000000000000E+00
     -6.56795579400788E-17   1.20000000000000E-01   1.20000000000000E-01   0.00000000000000E+00   0.00000000000000E+00
      4.32327389545012E-11   2.23189053436534E-15   4.32349708450356E-11   8.80409309210436E-18   3.30000000000000E-01
      3.30000000000000E-01   0.00000000000000E+00   0.00000000000000E+00   0.00000000000000E+00   0.00000000000000E+00
      0.00000000000000E+00   7.20251705730315E-17
      2.10000000000000E-01
      0.00000000000000E+00   0.00000000000000E+00   0.00000000000000E+00   0.00000000000000E+00  -2.86399986638970E-13
     -4.14972424977982E-11  -4.17836424844372E-11  -1.52140749000834E-17   8.40000000000000E-02   8.40000000000000E-02
      0.00000000000000E+00   0.00000000000000E+00   0.00000000000000E+00   0.00000000000000E+00   0.00000000000000E+00
     -6.39727145651400E-17   1.20000000000000E-01   1.20000000000000E-01   0.00000000000000E+00   0.00000000000000E+00
      4.17814378015421E-11   2.20468289510925E-15   4.17836424844372E-11   8.73345175595485E-18   3.30000000000000E-01
      3.30000000000000E-01   0.00000000000000E+00   0.00000000000000E+00   0.00000000000000E+00   0.00000000000000E+00
      0.00000000000000E+00   7.04533377092685E-17
      2.25000000000000E-01
      0.00000000000000E+00   0.00000000000000E+00   0.00000000000000E+00   0.00000000000000E+00  -2.88466723353543E-13
     -4.01218406716738E-11  -4.04103073950273E-11  -1.52784325677213E-17   9.00000000000000E-02   9.00000000000000E-02
      0.00000000000000E+00   0.00000000000000E+00   0.00000000000000E+00   0.00000000000000E+00   0.00000000000000E+00
     -6.22657655712859E-17   1.20000000000000E-01   1.20000000000000E-01   0.00000000000000E+00   0.00000000000000E+00
      4.04081303354770E-11   2.17705955020632E-15   4.04103073950272E-11   8.66258721187476E-18   3.30000000000000E-01
      3.30000000000000E-01   0.00000000000000E+00   0.00000000000000E+00   0.00000000000000E+00   0.00000000000000E+00
      0.00000000000000E+00   6.88816109271325E-17
      2.40000000000000E-01
      0.00000000000000E+00   0.00000000000000E+00   0.00000000000000E+00   0.00000000000000E+00  -2.90535775637457E-13
     -3.88213999011364E-11  -3.91119356767739E-11  -1.53427790002691E-17   9.60000000000000E-02   9.60000000000000E-02
      0.00000000000000E+00   0.00000000000000E+00   0.00000000000000E+00   0.00000000000000E+00   0.00000000000000E+00
     -6.05587065577690E-17   1.20000000000000E-01   1.20000000000000E-01   0.00000000000000E+00   0.00000000000000E+00
      3.91097865998473E-11   2.14907692653192E-15   3.91119356767738E-11   8.59149090138273E-18   3.30000000000000E-01
      3.30000000000000E-01   0.00000000000000E+00   0.00000000000000E+00   0.00000000000000E+00   0.00000000000000E+00
      0.00000000000000E+00   6.73099946566553E-17
      2.55000000000000E-01
      0.00000000000000E+00   0.00000000000000E+00   0.00000000000000E+00   0.00000000000000E+00  -2.92607100622827E-13
     -3.75932361119882E-11  -3.78858432126110E-11  -1.54071144618027E-17   1.02000000000000E-01   1.02000000000000E-01
      0.00000000000000E+00   0.00000000000000E+00   0.00000000000000E+00   0.00000000000000E+00   0.00000000000000E+00
     -5.88515329308747E-17   1.20000000000000E-01   1.20000000000000E-01   0.00000000000000E+00   0.00000000000000E+00
      3.78837224206316E-11   2.12079197943902E-15   3.78858432126111E-11   8.52015387103323E-18   3.30000000000000E-01
      3.30000000000000E-01   0.00000000000000E+00   0.00000000000000E+00   0.00000000000000E+00   0.00000000000000E+00
      0.00000000000000E+00   6.57384935216442E-17
      2.70000000000000E-01
      0.00000000000000E+00   0.00000000000000E+00   0.00000000000000E+00   0.00000000000000E+00  -2.94680655291128E-13
     -3.64349842208717E-11  -3.67296648761628E-11  -1.54714392083747E-17   1.08000000000000E-01   1.08000000000000E-01
      0.00000000000000E+00   0.00000000000000E+00   0.00000000000000E+00   0.00000000000000E+00   0.00000000000000E+00
     -5.71442398917198E-17   1.20000000000000E-01   1.20000000000000E-01   0.00000000000000E+00   0.00000000000000E+00
      3.67275726149842E-11   2.09226117868136E-15   3.67296648761628E-11   8.44856674840602E-18   3.30000000000000E-01
      3.30000000000000E-01   0.00000000000000E+00   0.00000000000000E+00   0.00000000000000E+00   0.00000000000000E+00
      0.00000000000000E+00   6.41671123516884E-17
      2.85000000000000E-01
      0.00000000000000E+00   0.00000000000000E+00   0.00000000000000E+00   0.00000000000000E+00  -2.96756395118357E-13
     -3.53445760233341E-11  -3.56413324184524E-11  -1.55357534881974E-17   1.14000000000000E-01   1.14000000000000E-01
      0.00000000000000E+00   0.00000000000000E+00   0.00000000000000E+00   0.00000000000000E+00   0.00000000000000E+00
     -5.54368224230197E-17   1.20000000000000E-01   1.20000000000000E-01   0.00000000000000E+00   0.00000000000000E+00
      3.56392688788710E-11   2.06353958142966E-15   3.56413324184524E-11   8.37671971607421E-18   3.30000000000000E-01
      3.30000000000000E-01   0.00000000000000E+00   0.00000000000000E+00   0.00000000000000E+00   0.00000000000000E+00
      0.00000000000000E+00   6.25958561951429E-17
      3.00000000000000E-01
      0.00000000000000E+00   0.00000000000000E+00   0.00000000000000E+00   0.00000000000000E+00  -2.98834275368709E-13
     -3.43202224445726E-11  -3.46190567199413E-11  -1.56000575418115E-17   1.20000000000000E-01   1.20000000000000E-01
      0.00000000000000E+00   0.00000000000000E+00   0.00000000000000E+00   0.00000000000000E+00   0.00000000000000E+00
     -5.37292752747130E-17   1.20000000000000E-01   1.20000000000000E-01   0.00000000000000E+00   0.00000000000000E+00
      3.46170220399249E-11   2.03468001628079E-15   3.46190567199412E-11   8.30460248333652E-18   3.30000000000000E-01
      3.30000000000000E-01   0.00000000000000E+00   0.00000000000000E+00   0.00000000000000E+00   0.00000000000000E+00
      0.00000000000000E+00   6.10247303331879E-17
      3.15000000000000E-01
      0.00000000000000E+00   0.00000000000000E+00   0.00000000000000E+00   0.00000000000000E+00  -3.00914249803205E-13
     -3.33603998578729E-11  -3.36613141076761E-11  -1.56643516022385E-17   1.26000000000000E-01   1.26000000000000E-01
      0.00000000000000E+00   0.00000000000000E+00   0.00000000000000E+00   0.00000000000000E+00   0.00000000000000E+00
     -5.20215929483152E-17   1.20000000000000E-01   1.20000000000000E-01   0.00000000000000E+00   0.00000000000000E+00
      3.36593083752869E-11   2.00573238906454E-15   3.36613141076760E-11   8.23220425547253E-18   3.30000000000000E-01
      3.30000000000000E-01   0.00000000000000E+00   0.00000000000000E+00   0.00000000000000E+00   0.00000000000000E+00
      0.00000000000000E+00   5.94537402950811E-17
      3.30000000000000E-01
      0.00000000000000E+00   0.00000000000000E+00   0.00000000000000E+00   0.00000000000000E+00  -3.02996270882147E-13
     -3.24638402010848E-11  -3.27668364719669E-11  -1.57286358951173E-17   1.32000000000000E-01   1.32000000000000E-01
      0.00000000000000E+00   0.00000000000000E+00   0.00000000000000E+00   0.00000000000000E+00   0.00000000000000E+00
     -5.03137696798623E-17   1.20000000000000E-01   1.20000000000000E-01   0.00000000000000E+00   0.00000000000000E+00
      3.27648597288430E-11   1.97674312382642E-15   3.27668364719668E-11   8.15951370025213E-18   3.30000000000000E-01
      3.30000000000000E-01   0.00000000000000E+00   0.00000000000000E+00   0.00000000000000E+00   0.00000000000000E+00
      0.00000000000000E+00   5.78828918747274E-17
      3.45000000000000E-01
      0.00000000000000E+00   0.00000000000000E+00   0.00000000000000E+00   0.00000000000000E+00  -3.05080289895593E-13
     -3.16295246484084E-11  -3.19346049383040E-11  -1.57929106388238E-17   1.38000000000000E-01   1.38000000000000E-01
      0.00000000000000E+00   0.00000000000000E+00   0.00000000000000E+00   0.00000000000000E+00   0.00000000000000E+00
     -4.86057994212845E-17   1.20000000000000E-01   1.20000000000000E-01   0.00000000000000E+00   0.00000000000000E+00
      3.19326571835625E-11   1.94775474148631E-15   3.19346049383040E-11   8.08651891139845E-18   3.30000000000000E-01
      3.30000000000000E-01   0.00000000000000E+00   0.00000000000000E+00   0.00000000000000E+00   0.00000000000000E+00
      0.00000000000000E+00   5.63121911487099E-17
      3.60000000000000E-01
      0.00000000000000E+00   0.00000000000000E+00   0.00000000000000E+00   0.00000000000000E+00  -3.07166255549386E-13
     -3.08566806230846E-11  -3.11638468786340E-11  -1.58571760445719E-17   1.44000000000000E-01   1.44000000000000E-01
      0.00000000000000E+00   0.00000000000000E+00   0.00000000000000E+00   0.00000000000000E+00   0.00000000000000E+00
     -4.68976758200333E-17   1.20000000000000E-01   1.20000000000000E-01   0.00000000000000E+00   0.00000000000000E+00
      3.11619280730579E-11   1.91880557613257E-15   3.11638468786340E-11   8.01320736866675E-18   3.30000000000000E-01
      3.30000000000000E-01   0.00000000000000E+00   0.00000000000000E+00   0.00000000000000E+00   0.00000000000000E+00
      0.00000000000000E+00   5.47416444959385E-17
      3.75000000000000E-01
      0.00000000000000E+00   0.00000000000000E+00   0.00000000000000E+00   0.00000000000000E+00  -3.09254114906963E-13
     -3.01447819659518E-11  -3.04540360808587E-11  -1.59214323164961E-17   1.50000000000000E-01   1.50000000000000E-01
      0.00000000000000E+00   0.00000000000000E+00   0.00000000000000E+00   0.00000000000000E+00   0.00000000000000E+00
     -4.51893921967628E-17   1.20000000000000E-01   1.20000000000000E-01   0.00000000000000E+00   0.00000000000000E+00
      3.04521461512352E-11   1.88992962349697E-15   3.04540360808587E-11   7.93956589416237E-18   3.30000000000000E-01
      3.30000000000000E-01   0.00000000000000E+00   0.00000000000000E+00   0.00000000000000E+00   0.00000000000000E+00
      0.00000000000000E+00   5.31712586190965E-17
      3.90000000000000E-01
      0.00000000000000E+00   0.00000000000000E+00   0.00000000000000E+00   0.00000000000000E+00  -3.11343813237865E-13
     -2.94935521049277E-11  -2.98048959181656E-11  -1.59856796517131E-17   1.56000000000000E-01   1.56000000000000E-01
      0.00000000000000E+00   0.00000000000000E+00   0.00000000000000E+00   0.00000000000000E+00   0.00000000000000E+00
     -4.34809415208405E-17   1.20000000000000E-01   1.20000000000000E-01   0.00000000000000E+00   0.00000000000000E+00
      2.98030347616552E-11   1.86115651040342E-15   2.98048959181656E-11   7.86558060447481E-18   3.30000000000000E-01
      3.30000000000000E-01   0.00000000000000E+00   0.00000000000000E+00   0.00000000000000E+00   0.00000000000000E+00
      0.00000000000000E+00   5.16010405680788E-17
      4.05000000000000E-01
      0.00000000000000E+00   0.00000000000000E+00   0.00000000000000E+00   0.00000000000000E+00  -3.13435291999371E-13
     -2.89029701009134E-11  -2.92164053929128E-11  -1.60499182403624E-17   1.62000000000000E-01   1.62000000000000E-01
      0.00000000000000E+00   0.00000000000000E+00   0.00000000000000E+00   0.00000000000000E+00   0.00000000000000E+00
     -4.17723163834392E-17   1.20000000000000E-01   1.20000000000000E-01   0.00000000000000E+00   0.00000000000000E+00
      2.92145728813422E-11   1.83251157059459E-15   2.92164053929128E-11   7.79123685815466E-18   3.30000000000000E-01
      3.30000000000000E-01   0.00000000000000E+00   0.00000000000000E+00   0.00000000000000E+00   0.00000000000000E+00
      0.00000000000000E+00   5.00309977656469E-17
      4.20000000000000E-01
      0.00000000000000E+00   0.00000000000000E+00   0.00000000000000E+00   0.00000000000000E+00  -3.15528489117209E-13
     -2.83732794760107E-11  -2.86888079651279E-11  -1.61141482656223E-17   1.68000000000000E-01   1.68000000000000E-01
      0.00000000000000E+00   0.00000000000000E+00   0.00000000000000E+00   0.00000000000000E+00   0.00000000000000E+00
     -4.00635089679261E-17   1.20000000000000E-01   1.20000000000000E-01   0.00000000000000E+00   0.00000000000000E+00
      2.86870039491181E-11   1.80401600977753E-15   2.86888079651279E-11   7.71651919800284E-18   3.30000000000000E-01
      3.30000000000000E-01   0.00000000000000E+00   0.00000000000000E+00   0.00000000000000E+00   0.00000000000000E+00
      0.00000000000000E+00   4.84611380355455E-17
      4.35000000000000E-01
      0.00000000000000E+00   0.00000000000000E+00   0.00000000000000E+00   0.00000000000000E+00  -3.17623339699323E-13
     -2.79049997599141E-11  -2.82226230996134E-11  -1.61783699037017E-17   1.74000000000000E-01   1.74000000000000E-01
      0.00000000000000E+00   0.00000000000000E+00   0.00000000000000E+00   0.00000000000000E+00   0.00000000000000E+00
     -3.83545110172346E-17   1.20000000000000E-01   1.20000000000000E-01   0.00000000000000E+00   0.00000000000000E+00
      2.82208474124738E-11   1.77568713958838E-15   2.82226230996134E-11   7.64141128757773E-18   3.30000000000000E-01
      3.30000000000000E-01   0.00000000000000E+00   0.00000000000000E+00   0.00000000000000E+00   0.00000000000000E+00
      0.00000000000000E+00   4.68914696333586E-17
      4.50000000000000E-01
      0.00000000000000E+00   0.00000000000000E+00   0.00000000000000E+00   0.00000000000000E+00  -3.19719774799307E-13
     -2.74989407194772E-11  -2.78186604942765E-11  -1.62425833238033E-17   1.80000000000000E-01   1.80000000000000E-01
      0.00000000000000E+00   0.00000000000000E+00   0.00000000000000E+00   0.00000000000000E+00   0.00000000000000E+00
     -3.66453137978635E-17   1.20000000000000E-01   1.20000000000000E-01   0.00000000000000E+00   0.00000000000000E+00
      2.78169129556169E-11   1.74753865960376E-15   2.78186604942765E-11   7.56589584125331E-18   3.30000000000000E-01
      3.30000000000000E-01   0.00000000000000E+00   0.00000000000000E+00   0.00000000000000E+00   0.00000000000000E+00
      0.00000000000000E+00   4.53220012804135E-17
      4.65000000000000E-01
      0.00000000000000E+00   0.00000000000000E+00   0.00000000000000E+00   0.00000000000000E+00  -3.21817718359112E-13
     -2.71562192644214E-11  -2.74780369827806E-11  -1.63067886880567E-17   1.86000000000000E-01   1.86000000000000E-01
      0.00000000000000E+00   0.00000000000000E+00   0.00000000000000E+00   0.00000000000000E+00   0.00000000000000E+00
     -3.49359080601053E-17   1.20000000000000E-01   1.20000000000000E-01   0.00000000000000E+00   0.00000000000000E+00
      2.74763174018145E-11   1.71958096606964E-15   2.74780369827805E-11   7.48995454708186E-18   3.30000000000000E-01
      3.30000000000000E-01   0.00000000000000E+00   0.00000000000000E+00   0.00000000000000E+00   0.00000000000000E+00
      0.00000000000000E+00   4.37527422010802E-17
      4.80000000000000E-01
      0.00000000000000E+00   0.00000000000000E+00   0.00000000000000E+00   0.00000000000000E+00  -3.23917091484756E-13
     -2.68782790486012E-11  -2.72021961400860E-11  -1.63709861514188E-17   1.92000000000000E-01   1.92000000000000E-01
      0.00000000000000E+00   0.00000000000000E+00   0.00000000000000E+00   0.00000000000000E+00   0.00000000000000E+00
     -3.32262839940554E-17   1.20000000000000E-01   1.20000000000000E-01   0.00000000000000E+00   0.00000000000000E+00
      2.72005043186179E-11   1.69182146810445E-15   2.72021961400860E-11   7.41356798162327E-18   3.30000000000000E-01
      3.30000000000000E-01   0.00000000000000E+00   0.00000000000000E+00   0.00000000000000E+00   0.00000000000000E+00
      0.00000000000000E+00   4.21837021638509E-17
      4.95000000000000E-01
      0.00000000000000E+00   0.00000000000000E+00   0.00000000000000E+00   0.00000000000000E+00  -3.26017806945557E-13
     -2.66669128108710E-11  -2.69929306178165E-11  -1.64351758615372E-17   1.98000000000000E-01   1.98000000000000E-01
      0.00000000000000E+00   0.00000000000000E+00   0.00000000000000E+00   0.00000000000000E+00   0.00000000000000E+00
     -3.15164311809011E-17   1.20000000000000E-01   1.20000000000000E-01   0.00000000000000E+00   0.00000000000000E+00
      2.69912663529248E-11   1.66426489167362E-15   2.69929306178165E-11   7.33671551580164E-18   3.30000000000000E-01
      3.30000000000000E-01   0.00000000000000E+00   0.00000000000000E+00   0.00000000000000E+00   0.00000000000000E+00
      0.00000000000000E+00   4.06148915266367E-17
      5.10000000000000E-01
      0.00000000000000E+00   0.00000000000000E+00   0.00000000000000E+00   0.00000000000000E+00  -3.28119769841947E-13
     -2.65242875221685E-11  -2.68524072920105E-11  -1.64993579585737E-17   2.04000000000000E-01   2.04000000000000E-01
      0.00000000000000E+00   0.00000000000000E+00   0.00000000000000E+00   0.00000000000000E+00   0.00000000000000E+00
     -2.98063385389242E-17   1.20000000000000E-01   1.20000000000000E-01   0.00000000000000E+00   0.00000000000000E+00
      2.68507703784541E-11   1.63691355638155E-15   2.68524072920105E-11   7.25937521073650E-18   3.30000000000000E-01
      3.30000000000000E-01   0.00000000000000E+00   0.00000000000000E+00   0.00000000000000E+00   0.00000000000000E+00
      0.00000000000000E+00   3.90463212867613E-17
      5.25000000000000E-01
      0.00000000000000E+00   0.00000000000000E+00   0.00000000000000E+00   0.00000000000000E+00  -3.30222878368223E-13
     -2.64529724257359E-11  -2.67831953041042E-11  -1.65635325749832E-17   2.10000000000000E-01   2.10000000000000E-01
      0.00000000000000E+00   0.00000000000000E+00   0.00000000000000E+00   0.00000000000000E+00   0.00000000000000E+00
     -2.80959942635835E-17   1.20000000000000E-01   1.20000000000000E-01   0.00000000000000E+00   0.00000000000000E+00
      2.67815855364933E-11   1.60976761086268E-15   2.67831953041041E-11   7.18152370236770E-18   3.30000000000000E-01
      3.30000000000000E-01   0.00000000000000E+00   0.00000000000000E+00   0.00000000000000E+00   0.00000000000000E+00
      0.00000000000000E+00   3.74780031361989E-17
      5.40000000000000E-01
      0.00000000000000E+00   0.00000000000000E+00   0.00000000000000E+00   0.00000000000000E+00  -3.32327019473646E-13
     -2.64559700752941E-11  -2.67882970947678E-11  -1.66276998352432E-17   2.16000000000000E-01   2.16000000000000E-01
      0.00000000000000E+00   0.00000000000000E+00   0.00000000000000E+00   0.00000000000000E+00   0.00000000000000E+00
     -2.63853857609654E-17   1.20000000000000E-01   1.20000000000000E-01   0.00000000000000E+00   0.00000000000000E+00
      2.67867142695514E-11   1.58282521642689E-15   2.67882970947678E-11   7.10313607354974E-18   3.30000000000000E-01
      3.30000000000000E-01   0.00000000000000E+00   0.00000000000000E+00   0.00000000000000E+00   0.00000000000000E+00
      0.00000000000000E+00   3.59099495226589E-17
      5.55000000000000E-01
      0.00000000000000E+00   0.00000000000000E+00   0.00000000000000E+00   0.00000000000000E+00  -3.34432071976930E-13