DF-ISE text

Info {
  version   = 1.0
  type      = xyplot
  datasets  = [
    "time"
    "source OuterVoltage" "source InnerVoltage" "source QuasiFermiPotential" "source DisplacementCurrent" "source eCurrent"
    "source hCurrent" "source TotalCurrent" "source Charge" "topGate OuterVoltage" "topGate InnerVoltage"
    "topGate QuasiFermiPotential" "topGate DisplacementCurrent" "topGate eCurrent" "topGate hCurrent" "topGate TotalCurrent"
    "topGate Charge" "drain OuterVoltage" "drain InnerVoltage" "drain QuasiFermiPotential" "drain DisplacementCurrent"
    "drain eCurrent" "drain hCurrent" "drain TotalCurrent" "drain Charge" "bottomGate OuterVoltage"
    "bottomGate InnerVoltage" "bottomGate QuasiFermiPotential" "bottomGate DisplacementCurrent" "bottomGate eCurrent" "bottomGate hCurrent"
    "bottomGate TotalCurrent" "bottomGate Charge" ]
  functions = [
    Time
    OuterVoltage InnerVoltage QuasiFermiPotential DisplacementCurrent eCurrent
    hCurrent TotalCurrent Charge OuterVoltage InnerVoltage
    QuasiFermiPotential DisplacementCurrent eCurrent hCurrent TotalCurrent
    Charge OuterVoltage InnerVoltage QuasiFermiPotential DisplacementCurrent
    eCurrent hCurrent TotalCurrent Charge OuterVoltage
    InnerVoltage QuasiFermiPotential DisplacementCurrent eCurrent hCurrent
    TotalCurrent Charge ]
}

Data {
      1.00000000000000E-02
      0.00000000000000E+00   0.00000000000000E+00   0.00000000000000E+00   0.00000000000000E+00  -1.95298755444080E-13
     -4.59694189877374E-10  -4.59889488632818E-10  -1.21910744157932E-17   4.00000000000000E-03   4.00000000000000E-03
      0.00000000000000E+00   0.00000000000000E+00   0.00000000000000E+00   0.00000000000000E+00   0.00000000000000E+00
     -9.17167723619878E-17   3.80000000000000E-01   3.80000000000000E-01   0.00000000000000E+00   0.00000000000000E+00
      4.59882050906250E-10   7.43772656882520E-15   4.59889488632819E-10   1.74828802111345E-17   3.30000000000000E-01
      3.30000000000000E-01   0.00000000000000E+00   0.00000000000000E+00   0.00000000000000E+00   0.00000000000000E+00
      0.00000000000000E+00   8.64249665666464E-17
      2.00000000000000E-02
      0.00000000000000E+00   0.00000000000000E+00   0.00000000000000E+00   0.00000000000000E+00  -1.96580051883384E-13
     -4.32097814225414E-10  -4.32294394277298E-10  -1.22346761743684E-17   8.00000000000000E-03   8.00000000000000E-03
      0.00000000000000E+00   0.00000000000000E+00   0.00000000000000E+00   0.00000000000000E+00   0.00000000000000E+00
     -9.05807136559402E-17   3.80000000000000E-01   3.80000000000000E-01   0.00000000000000E+00   0.00000000000000E+00
      4.32286964933618E-10   7.42934367960093E-15   4.32294394277298E-10   1.74401528736843E-17   3.30000000000000E-01
      3.30000000000000E-01   0.00000000000000E+00   0.00000000000000E+00   0.00000000000000E+00   0.00000000000000E+00
      0.00000000000000E+00   8.53752369566243E-17
      3.00000000000000E-02
      0.00000000000000E+00   0.00000000000000E+00   0.00000000000000E+00   0.00000000000000E+00  -1.97863361217309E-13
     -4.05955453424504E-10  -4.06153316785722E-10  -1.22782602851180E-17   1.20000000000000E-02   1.20000000000000E-02
      0.00000000000000E+00   0.00000000000000E+00   0.00000000000000E+00   0.00000000000000E+00   0.00000000000000E+00
     -8.94446626507938E-17   3.80000000000000E-01   3.80000000000000E-01   0.00000000000000E+00   0.00000000000000E+00
      4.06145897511879E-10   7.41927384346192E-15   4.06153316785722E-10   1.73974232813847E-17   3.30000000000000E-01
      3.30000000000000E-01   0.00000000000000E+00   0.00000000000000E+00   0.00000000000000E+00   0.00000000000000E+00
      0.00000000000000E+00   8.43254996545272E-17
      4.00000000000000E-02
      0.00000000000000E+00   0.00000000000000E+00   0.00000000000000E+00   0.00000000000000E+00  -1.99148683069789E-13
     -3.81202897587166E-10  -3.81402046270235E-10  -1.23218270932058E-17   1.60000000000000E-02   1.60000000000000E-02
      0.00000000000000E+00   0.00000000000000E+00   0.00000000000000E+00   0.00000000000000E+00   0.00000000000000E+00
     -8.83086191553167E-17   3.80000000000000E-01   3.80000000000000E-01   0.00000000000000E+00   0.00000000000000E+00
      3.81394638624606E-10   7.40764562963071E-15   3.81402046270236E-10   1.73546913974921E-17   3.30000000000000E-01
      3.30000000000000E-01   0.00000000000000E+00   0.00000000000000E+00   0.00000000000000E+00   0.00000000000000E+00
      0.00000000000000E+00   8.32757548510305E-17
      5.00000000000000E-02
      0.00000000000000E+00   0.00000000000000E+00   0.00000000000000E+00   0.00000000000000E+00  -2.00436015206222E-13
     -3.57778151305505E-10  -3.57978587320712E-10  -1.23653769361650E-17   2.00000000000000E-02   2.00000000000000E-02
      0.00000000000000E+00   0.00000000000000E+00   0.00000000000000E+00   0.00000000000000E+00   0.00000000000000E+00
     -8.71725829819401E-17   3.80000000000000E-01   3.80000000000000E-01   0.00000000000000E+00   0.00000000000000E+00
      3.57971192742382E-10   7.39457832953547E-15   3.57978587320712E-10   1.73119571849250E-17   3.30000000000000E-01
      3.30000000000000E-01   0.00000000000000E+00   0.00000000000000E+00   0.00000000000000E+00   0.00000000000000E+00
      0.00000000000000E+00   8.22260027331802E-17
      6.00000000000000E-02
      0.00000000000000E+00   0.00000000000000E+00   0.00000000000000E+00   0.00000000000000E+00  -2.01725353713378E-13
     -3.35621382032872E-10  -3.35823107386586E-10  -1.24089101440795E-17   2.40000000000000E-02   2.40000000000000E-02
      0.00000000000000E+00   0.00000000000000E+00   0.00000000000000E+00   0.00000000000000E+00   0.00000000000000E+00
     -8.60365539466546E-17   3.80000000000000E-01   3.80000000000000E-01   0.00000000000000E+00   0.00000000000000E+00
      3.35815727203984E-10   7.38018260111145E-15   3.35823107386585E-10   1.72692206062391E-17   3.30000000000000E-01
      3.30000000000000E-01   0.00000000000000E+00   0.00000000000000E+00   0.00000000000000E+00   0.00000000000000E+00
      0.00000000000000E+00   8.11762434844950E-17
      7.00000000000000E-02
      0.00000000000000E+00   0.00000000000000E+00   0.00000000000000E+00   0.00000000000000E+00  -2.03016693163119E-13
     -3.14674869022920E-10  -3.14877885716083E-10  -1.24524270397623E-17   2.80000000000000E-02   2.80000000000000E-02
      0.00000000000000E+00   0.00000000000000E+00   0.00000000000000E+00   0.00000000000000E+00   0.00000000000000E+00
     -8.49005318689073E-17   3.80000000000000E-01   3.80000000000000E-01   0.00000000000000E+00   0.00000000000000E+00
      3.14870521155061E-10   7.36456102205063E-15   3.14877885716083E-10   1.72264816236037E-17   3.30000000000000E-01
      3.30000000000000E-01   0.00000000000000E+00   0.00000000000000E+00   0.00000000000000E+00   0.00000000000000E+00
      0.00000000000000E+00   8.01264772850660E-17
      8.00000000000000E-02
      0.00000000000000E+00   0.00000000000000E+00   0.00000000000000E+00   0.00000000000000E+00  -2.04310026762414E-13
     -2.94882952816185E-10  -2.95087262842947E-10  -1.24959279389287E-17   3.20000000000000E-02   3.20000000000000E-02
      0.00000000000000E+00   0.00000000000000E+00   0.00000000000000E+00   0.00000000000000E+00   0.00000000000000E+00
     -8.37645165715038E-17   3.80000000000000E-01   3.80000000000000E-01   0.00000000000000E+00   0.00000000000000E+00
      2.95079915034280E-10   7.34780866775856E-15   2.95087262842948E-10   1.71837401987782E-17   3.30000000000000E-01
      3.30000000000000E-01   0.00000000000000E+00   0.00000000000000E+00   0.00000000000000E+00   0.00000000000000E+00
      0.00000000000000E+00   7.90767043116543E-17
      9.00000000000000E-02
      0.00000000000000E+00   0.00000000000000E+00   0.00000000000000E+00   0.00000000000000E+00  -2.05605346490318E-13
     -2.76191985266643E-10  -2.76397590613133E-10  -1.25394131503653E-17   3.60000000000000E-02   3.60000000000000E-02
      0.00000000000000E+00   0.00000000000000E+00   0.00000000000000E+00   0.00000000000000E+00   0.00000000000000E+00
     -8.26285078805104E-17   3.80000000000000E-01   3.80000000000000E-01   0.00000000000000E+00   0.00000000000000E+00
      2.76390260599487E-10   7.33001364608048E-15   2.76397590613133E-10   1.71409962930896E-17   3.30000000000000E-01
      3.30000000000000E-01   0.00000000000000E+00   0.00000000000000E+00   0.00000000000000E+00   0.00000000000000E+00
      0.00000000000000E+00   7.80269247377860E-17
      1.00000000000000E-01
      0.00000000000000E+00   0.00000000000000E+00   0.00000000000000E+00   0.00000000000000E+00  -2.06902643223054E-13
     -2.58550280102978E-10  -2.58757182746201E-10  -1.25828829760949E-17   4.00000000000000E-02   4.00000000000000E-02
      0.00000000000000E+00   0.00000000000000E+00   0.00000000000000E+00   0.00000000000000E+00   0.00000000000000E+00
     -8.14925056251603E-17   3.80000000000000E-01   3.80000000000000E-01   0.00000000000000E+00   0.00000000000000E+00
      2.58749871488685E-10   7.31125751653875E-15   2.58757182746201E-10   1.70982498674102E-17   3.30000000000000E-01
      3.30000000000000E-01   0.00000000000000E+00   0.00000000000000E+00   0.00000000000000E+00   0.00000000000000E+00
      0.00000000000000E+00   7.69771387338451E-17
      1.10000000000000E-01
      0.00000000000000E+00   0.00000000000000E+00   0.00000000000000E+00   0.00000000000000E+00  -2.08201906848960E-13
     -2.41908064021539E-10  -2.42116265928388E-10  -1.26263377115378E-17   4.40000000000000E-02   4.40000000000000E-02
      0.00000000000000E+00   0.00000000000000E+00   0.00000000000000E+00   0.00000000000000E+00   0.00000000000000E+00
     -8.03565096377616E-17   3.80000000000000E-01   3.80000000000000E-01   0.00000000000000E+00   0.00000000000000E+00
      2.42108974312584E-10   7.29161580418620E-15   2.42116265928388E-10   1.70555008821357E-17   3.30000000000000E-01
      3.30000000000000E-01   0.00000000000000E+00   0.00000000000000E+00   0.00000000000000E+00   0.00000000000000E+00
      0.00000000000000E+00   7.59273464671637E-17
      1.20000000000000E-01
      0.00000000000000E+00   0.00000000000000E+00   0.00000000000000E+00   0.00000000000000E+00  -2.09503126372665E-13
     -2.26217428309391E-10  -2.26426931435764E-10  -1.26697776456676E-17   4.80000000000000E-02   4.80000000000000E-02
      0.00000000000000E+00   0.00000000000000E+00   0.00000000000000E+00   0.00000000000000E+00   0.00000000000000E+00
     -7.92205197536072E-17   3.80000000000000E-01   3.80000000000000E-01   0.00000000000000E+00   0.00000000000000E+00
      2.26419660277360E-10   7.27115840368179E-15   2.26426931435764E-10   1.70127492971644E-17   3.30000000000000E-01
      3.30000000000000E-01   0.00000000000000E+00   0.00000000000000E+00   0.00000000000000E+00   0.00000000000000E+00
      0.00000000000000E+00   7.48775481021105E-17
      1.30000000000000E-01
      0.00000000000000E+00   0.00000000000000E+00   0.00000000000000E+00   0.00000000000000E+00  -2.10806290010676E-13
     -2.11432280997704E-10  -2.11643087287715E-10  -1.27132030611653E-17   5.20000000000000E-02   5.20000000000000E-02
      0.00000000000000E+00   0.00000000000000E+00   0.00000000000000E+00   0.00000000000000E+00   0.00000000000000E+00
     -7.80845358108875E-17   3.80000000000000E-01   3.80000000000000E-01   0.00000000000000E+00   0.00000000000000E+00
      2.11635837337755E-10   7.24994996000921E-15   2.11643087287715E-10   1.69699950718755E-17   3.30000000000000E-01
      3.30000000000000E-01   0.00000000000000E+00   0.00000000000000E+00   0.00000000000000E+00   0.00000000000000E+00
      0.00000000000000E+00   7.38277438001772E-17
      1.40000000000000E-01
      0.00000000000000E+00   0.00000000000000E+00   0.00000000000000E+00   0.00000000000000E+00  -2.12111385278582E-13
     -1.97508299547076E-10  -1.97720410932354E-10  -1.27566142345674E-17   5.60000000000000E-02   5.60000000000000E-02
      0.00000000000000E+00   0.00000000000000E+00   0.00000000000000E+00   0.00000000000000E+00   0.00000000000000E+00
     -7.69485576506047E-17   3.80000000000000E-01   3.80000000000000E-01   0.00000000000000E+00   0.00000000000000E+00
      1.97713182882086E-10   7.22805026811066E-15   1.97720410932354E-10   1.69272381651089E-17   3.30000000000000E-01
      3.30000000000000E-01   0.00000000000000E+00   0.00000000000000E+00   0.00000000000000E+00   0.00000000000000E+00
      0.00000000000000E+00   7.27779337200632E-17
      1.50000000000000E-01
      0.00000000000000E+00   0.00000000000000E+00   0.00000000000000E+00   0.00000000000000E+00  -2.13418399070727E-13
     -1.84402884067512E-10  -1.84616302466582E-10  -1.28000114364121E-17   6.00000000000000E-02   6.00000000000000E-02
      0.00000000000000E+00   0.00000000000000E+00   0.00000000000000E+00   0.00000000000000E+00   0.00000000000000E+00
     -7.58125851164892E-17   3.80000000000000E-01   3.80000000000000E-01   0.00000000000000E+00   0.00000000000000E+00
      1.84609096951983E-10   7.20551459915538E-15   1.84616302466582E-10   1.68844785351442E-17   3.30000000000000E-01
      3.30000000000000E-01   0.00000000000000E+00   0.00000000000000E+00   0.00000000000000E+00   0.00000000000000E+00
      0.00000000000000E+00   7.17281180177571E-17
      1.60000000000000E-01
      0.00000000000000E+00   0.00000000000000E+00   0.00000000000000E+00   0.00000000000000E+00  -2.14727317732770E-13
     -1.72075111077038E-10  -1.72289838394771E-10  -1.28433949313808E-17   6.40000000000000E-02   6.40000000000000E-02
      0.00000000000000E+00   0.00000000000000E+00   0.00000000000000E+00   0.00000000000000E+00   0.00000000000000E+00
     -7.46766180549183E-17   3.80000000000000E-01   3.80000000000000E-01   0.00000000000000E+00   0.00000000000000E+00
      1.72282656000737E-10   7.18239403392328E-15   1.72289838394771E-10   1.68417161396809E-17   3.30000000000000E-01
      3.30000000000000E-01   0.00000000000000E+00   0.00000000000000E+00   0.00000000000000E+00   0.00000000000000E+00
      0.00000000000000E+00   7.06782968466182E-17
      1.70000000000000E-01
      0.00000000000000E+00   0.00000000000000E+00   0.00000000000000E+00   0.00000000000000E+00  -2.16038127127804E-13
     -1.60485687803768E-10  -1.60701725930896E-10  -1.28867649784362E-17   6.80000000000000E-02   6.80000000000000E-02
      0.00000000000000E+00   0.00000000000000E+00   0.00000000000000E+00   0.00000000000000E+00   0.00000000000000E+00
     -7.35406563148359E-17   3.80000000000000E-01   3.80000000000000E-01   0.00000000000000E+00   0.00000000000000E+00
      1.60694567195129E-10   7.15873576654013E-15   1.60701725930896E-10   1.67989509358175E-17   3.30000000000000E-01
      3.30000000000000E-01   0.00000000000000E+00   0.00000000000000E+00   0.00000000000000E+00   0.00000000000000E+00
      0.00000000000000E+00   6.96284703574546E-17
      1.80000000000000E-01
      0.00000000000000E+00   0.00000000000000E+00   0.00000000000000E+00   0.00000000000000E+00  -2.17350812697095E-13
     -1.49596907037137E-10  -1.49814257849834E-10  -1.29301218309577E-17   7.20000000000000E-02   7.20000000000000E-02
      0.00000000000000E+00   0.00000000000000E+00   0.00000000000000E+00   0.00000000000000E+00   0.00000000000000E+00
     -7.24046997476751E-17   3.80000000000000E-01   3.80000000000000E-01   0.00000000000000E+00   0.00000000000000E+00
      1.49807123266452E-10   7.13458338215549E-15   1.49814257849834E-10   1.67561828800319E-17   3.30000000000000E-01
      3.30000000000000E-01   0.00000000000000E+00   0.00000000000000E+00   0.00000000000000E+00   0.00000000000000E+00
      0.00000000000000E+00   6.85786386986008E-17
      1.90000000000000E-01
      0.00000000000000E+00   0.00000000000000E+00   0.00000000000000E+00   0.00000000000000E+00  -2.18665359514670E-13
     -1.39372602534761E-10  -1.39591267894275E-10  -1.29734657368724E-17   7.60000000000000E-02   7.60000000000000E-02
      0.00000000000000E+00   0.00000000000000E+00   0.00000000000000E+00   0.00000000000000E+00   0.00000000000000E+00
     -7.12687482072814E-17   3.80000000000000E-01   3.80000000000000E-01   0.00000000000000E+00   0.00000000000000E+00
      1.39584157917149E-10   7.10997712631740E-15   1.39591267894275E-10   1.67134119281613E-17   3.30000000000000E-01
      3.30000000000000E-01   0.00000000000000E+00   0.00000000000000E+00   0.00000000000000E+00   0.00000000000000E+00
      0.00000000000000E+00   6.75288020159926E-17
      2.00000000000000E-01
      0.00000000000000E+00   0.00000000000000E+00   0.00000000000000E+00   0.00000000000000E+00  -2.19981752337732E-13
     -1.29778104992012E-10  -1.29998086744349E-10  -1.30167969387838E-17   8.00000000000000E-02   8.00000000000000E-02
      0.00000000000000E+00   0.00000000000000E+00   0.00000000000000E+00   0.00000000000000E+00   0.00000000000000E+00
     -7.01328015498388E-17   3.80000000000000E-01   3.80000000000000E-01   0.00000000000000E+00   0.00000000000000E+00
      1.29991001790199E-10   7.08495415024770E-15   1.29998086744349E-10   1.66706380353816E-17   3.30000000000000E-01
      3.30000000000000E-01   0.00000000000000E+00   0.00000000000000E+00   0.00000000000000E+00   0.00000000000000E+00
      0.00000000000000E+00   6.64789604532410E-17
      2.10000000000000E-01
      0.00000000000000E+00   0.00000000000000E+00   0.00000000000000E+00   0.00000000000000E+00  -2.21299975652138E-13
     -1.20780198581958E-10  -1.21001498557610E-10  -1.30601156740967E-17   8.40000000000000E-02   8.40000000000000E-02
      0.00000000000000E+00   0.00000000000000E+00   0.00000000000000E+00   0.00000000000000E+00   0.00000000000000E+00
     -6.89968596337961E-17   3.80000000000000E-01   3.80000000000000E-01   0.00000000000000E+00   0.00000000000000E+00
      1.20994439008878E-10   7.05954873207158E-15   1.21001498557610E-10   1.66278611561881E-17   3.30000000000000E-01
      3.30000000000000E-01   0.00000000000000E+00   0.00000000000000E+00   0.00000000000000E+00   0.00000000000000E+00
      0.00000000000000E+00   6.54291141517047E-17
      2.20000000000000E-01
      0.00000000000000E+00   0.00000000000000E+00   0.00000000000000E+00   0.00000000000000E+00  -2.22620013714084E-13
     -1.12347078073819E-10  -1.12569698087533E-10  -1.31034221751390E-17   8.80000000000000E-02   8.80000000000000E-02
      0.00000000000000E+00   0.00000000000000E+00   0.00000000000000E+00   0.00000000000000E+00   0.00000000000000E+00
     -6.78609223197960E-17   3.80000000000000E-01   3.80000000000000E-01   0.00000000000000E+00   0.00000000000000E+00
      1.12562664295032E-10   7.03379250080161E-15   1.12569698087533E-10   1.65850812443747E-17   3.30000000000000E-01
      3.30000000000000E-01   0.00000000000000E+00   0.00000000000000E+00   0.00000000000000E+00   0.00000000000000E+00
      0.00000000000000E+00   6.43792632505603E-17
      2.30000000000000E-01
      0.00000000000000E+00   0.00000000000000E+00   0.00000000000000E+00   0.00000000000000E+00  -2.23941850587535E-13
     -1.04448306538465E-10  -1.04672248389052E-10  -1.31467166692811E-17   9.20000000000000E-02   9.20000000000000E-02
      0.00000000000000E+00   0.00000000000000E+00   0.00000000000000E+00   0.00000000000000E+00   0.00000000000000E+00
     -6.67249894706050E-17   3.80000000000000E-01   3.80000000000000E-01   0.00000000000000E+00   0.00000000000000E+00
      1.04665240674418E-10   7.00771463446012E-15   1.04672248389052E-10   1.65422982530140E-17   3.30000000000000E-01
      3.30000000000000E-01   0.00000000000000E+00   0.00000000000000E+00   0.00000000000000E+00   0.00000000000000E+00
      0.00000000000000E+00   6.33294078868720E-17
      2.40000000000000E-01
      0.00000000000000E+00   0.00000000000000E+00   0.00000000000000E+00   0.00000000000000E+00  -2.25265470178833E-13
     -9.70547736498504E-11  -9.72800391200292E-11  -1.31899993790517E-17   9.60000000000000E-02   9.60000000000000E-02
      0.00000000000000E+00   0.00000000000000E+00   0.00000000000000E+00   0.00000000000000E+00   0.00000000000000E+00
     -6.55890609510447E-17   3.80000000000000E-01   3.80000000000000E-01   0.00000000000000E+00   0.00000000000000E+00
      9.72730577779966E-11   6.98134203273186E-15   9.72800391200294E-11   1.64995121344373E-17   3.30000000000000E-01
      3.30000000000000E-01   0.00000000000000E+00   0.00000000000000E+00   0.00000000000000E+00   0.00000000000000E+00
      0.00000000000000E+00   6.22795481956591E-17
      2.50000000000000E-01
      0.00000000000000E+00   0.00000000000000E+00   0.00000000000000E+00   0.00000000000000E+00  -2.26590856267600E-13
     -9.01386545915569E-11  -9.03652454478245E-11  -1.32332705222508E-17   1.00000000000000E-01   1.00000000000000E-01
      0.00000000000000E+00   0.00000000000000E+00   0.00000000000000E+00   0.00000000000000E+00   0.00000000000000E+00
     -6.44531366279253E-17   3.80000000000000E-01   3.80000000000000E-01   0.00000000000000E+00   0.00000000000000E+00
      9.03582907483237E-11   6.95469950085622E-15   9.03652454478245E-11   1.64567228402133E-17   3.30000000000000E-01
      3.30000000000000E-01   0.00000000000000E+00   0.00000000000000E+00   0.00000000000000E+00   0.00000000000000E+00
      0.00000000000000E+00   6.12296843099628E-17
      2.60000000000000E-01
      0.00000000000000E+00   0.00000000000000E+00   0.00000000000000E+00   0.00000000000000E+00  -2.27917992534885E-13
     -8.36733695778288E-11  -8.39012875703637E-11  -1.32765303120604E-17   1.04000000000000E-01   1.04000000000000E-01
      0.00000000000000E+00   0.00000000000000E+00   0.00000000000000E+00   0.00000000000000E+00   0.00000000000000E+00
     -6.33172163699791E-17   3.80000000000000E-01   3.80000000000000E-01   0.00000000000000E+00   0.00000000000000E+00
      8.38943597604557E-11   6.92780990800912E-15   8.39012875703637E-11   1.64139303211284E-17   3.30000000000000E-01
      3.30000000000000E-01   0.00000000000000E+00   0.00000000000000E+00   0.00000000000000E+00   0.00000000000000E+00
      0.00000000000000E+00   6.01798163609111E-17
      2.70000000000000E-01
      0.00000000000000E+00   0.00000000000000E+00   0.00000000000000E+00   0.00000000000000E+00  -2.29246862589018E-13
     -7.76335439986484E-11  -7.78627908612374E-11  -1.33197789571518E-17   1.08000000000000E-01   1.08000000000000E-01
      0.00000000000000E+00   0.00000000000000E+00   0.00000000000000E+00   0.00000000000000E+00   0.00000000000000E+00
     -6.21813000477966E-17   3.80000000000000E-01   3.80000000000000E-01   0.00000000000000E+00   0.00000000000000E+00
      7.78558901669089E-11   6.90069432853843E-15   7.78627908612374E-11   1.63711345271654E-17   3.30000000000000E-01
      3.30000000000000E-01   0.00000000000000E+00   0.00000000000000E+00   0.00000000000000E+00   0.00000000000000E+00
      0.00000000000000E+00   5.91299444777829E-17
      2.80000000000000E-01
      0.00000000000000E+00   0.00000000000000E+00   0.00000000000000E+00   0.00000000000000E+00  -2.30577449988361E-13
     -7.19949691985437E-11  -7.22255466485321E-11  -1.33630166617909E-17   1.12000000000000E-01   1.12000000000000E-01
      0.00000000000000E+00   0.00000000000000E+00   0.00000000000000E+00   0.00000000000000E+00   0.00000000000000E+00
     -6.10453875337628E-17   3.80000000000000E-01   3.80000000000000E-01   0.00000000000000E+00   0.00000000000000E+00
      7.22186732763454E-11   6.87337218668947E-15   7.22255466485321E-11   1.63283354074827E-17   3.30000000000000E-01
      3.30000000000000E-01   0.00000000000000E+00   0.00000000000000E+00   0.00000000000000E+00   0.00000000000000E+00
      0.00000000000000E+00   5.80800687880709E-17
      2.90000000000000E-01
      0.00000000000000E+00   0.00000000000000E+00   0.00000000000000E+00   0.00000000000000E+00  -2.31909738262431E-13
     -6.67345638988547E-11  -6.69664736371172E-11  -1.34062436259402E-17   1.16000000000000E-01   1.16000000000000E-01
      0.00000000000000E+00   0.00000000000000E+00   0.00000000000000E+00   0.00000000000000E+00   0.00000000000000E+00
     -5.99094787019956E-17   3.80000000000000E-01   3.80000000000000E-01   0.00000000000000E+00   0.00000000000000E+00
      6.69596277757359E-11   6.84586138131163E-15   6.69664736371172E-11   1.62855329103930E-17   3.30000000000000E-01
      3.30000000000000E-01   0.00000000000000E+00   0.00000000000000E+00   0.00000000000000E+00   0.00000000000000E+00
      0.00000000000000E+00   5.70301894175428E-17
      3.00000000000000E-01
      0.00000000000000E+00   0.00000000000000E+00   0.00000000000000E+00   0.00000000000000E+00  -2.33243710930722E-13
     -6.18303362732249E-11  -6.20635799841557E-11  -1.34494600453589E-17   1.20000000000000E-01   1.20000000000000E-01
      0.00000000000000E+00   0.00000000000000E+00   0.00000000000000E+00   0.00000000000000E+00   0.00000000000000E+00
     -5.87735734282847E-17   3.80000000000000E-01   3.80000000000000E-01   0.00000000000000E+00   0.00000000000000E+00
      6.20567618057555E-11   6.81817840021639E-15   6.20635799841557E-11   1.62427269833418E-17   3.30000000000000E-01
      3.30000000000000E-01   0.00000000000000E+00   0.00000000000000E+00   0.00000000000000E+00   0.00000000000000E+00
      0.00000000000000E+00   5.59803064903019E-17
      3.10000000000000E-01
      0.00000000000000E+00   0.00000000000000E+00   0.00000000000000E+00   0.00000000000000E+00  -2.34579351519640E-13
     -5.72613466860786E-11  -5.74959260375983E-11  -1.34926661117003E-17   1.24000000000000E-01   1.24000000000000E-01
      0.00000000000000E+00   0.00000000000000E+00   0.00000000000000E+00   0.00000000000000E+00   0.00000000000000E+00
     -5.76376715900317E-17   3.80000000000000E-01   3.80000000000000E-01   0.00000000000000E+00   0.00000000000000E+00
      5.74891356991595E-11   6.79033843870388E-15   5.74959260375982E-11   1.61999175728856E-17   3.30000000000000E-01
      3.30000000000000E-01   0.00000000000000E+00   0.00000000000000E+00   0.00000000000000E+00   0.00000000000000E+00
      0.00000000000000E+00   5.49304201288465E-17
      3.20000000000000E-01
      0.00000000000000E+00   0.00000000000000E+00   0.00000000000000E+00   0.00000000000000E+00  -2.35916643577664E-13
     -5.30076711037384E-11  -5.32435877473160E-11  -1.35358620126067E-17   1.28000000000000E-01   1.28000000000000E-01
      0.00000000000000E+00   0.00000000000000E+00   0.00000000000000E+00   0.00000000000000E+00   0.00000000000000E+00
     -5.65017730661915E-17   3.80000000000000E-01   3.80000000000000E-01   0.00000000000000E+00   0.00000000000000E+00
      5.32368253918245E-11   6.76235549169799E-15   5.32435877473162E-11   1.61571046246700E-17   3.30000000000000E-01
      3.30000000000000E-01   0.00000000000000E+00   0.00000000000000E+00   0.00000000000000E+00   0.00000000000000E+00
      0.00000000000000E+00   5.38805304541283E-17
      3.30000000000000E-01
      0.00000000000000E+00   0.00000000000000E+00   0.00000000000000E+00   0.00000000000000E+00  -2.37255570689172E-13
     -4.90503651877911E-11  -4.92876207584803E-11  -1.35790479318020E-17   1.32000000000000E-01   1.32000000000000E-01
      0.00000000000000E+00   0.00000000000000E+00   0.00000000000000E+00   0.00000000000000E+00   0.00000000000000E+00
     -5.53658777372148E-17   3.80000000000000E-01   3.80000000000000E-01   0.00000000000000E+00   0.00000000000000E+00
      4.92808865160253E-11   6.73424245504881E-15   4.92876207584804E-11   1.61142880834073E-17   3.30000000000000E-01
      3.30000000000000E-01   0.00000000000000E+00   0.00000000000000E+00   0.00000000000000E+00   0.00000000000000E+00
      0.00000000000000E+00   5.28306375856095E-17
      3.40000000000000E-01
      0.00000000000000E+00   0.00000000000000E+00   0.00000000000000E+00   0.00000000000000E+00  -2.38596116486607E-13
     -4.53714290801254E-11  -4.56100251966120E-11  -1.36222240491820E-17   1.36000000000000E-01   1.36000000000000E-01
      0.00000000000000E+00   0.00000000000000E+00   0.00000000000000E+00   0.00000000000000E+00   0.00000000000000E+00
     -5.42299854849909E-17   3.80000000000000E-01   3.80000000000000E-01   0.00000000000000E+00   0.00000000000000E+00
      4.56033191854053E-11   6.70601120683986E-15   4.56100251966121E-11   1.60714678928538E-17   3.30000000000000E-01
      3.30000000000000E-01   0.00000000000000E+00   0.00000000000000E+00   0.00000000000000E+00   0.00000000000000E+00
      0.00000000000000E+00   5.17807416413192E-17
      3.50000000000000E-01
      0.00000000000000E+00   0.00000000000000E+00   0.00000000000000E+00   0.00000000000000E+00  -2.39938264661421E-13
     -4.19537728889252E-11  -4.21937111535866E-11  -1.36653905409029E-17   1.40000000000000E-01   1.40000000000000E-01
      0.00000000000000E+00   0.00000000000000E+00   0.00000000000000E+00   0.00000000000000E+00   0.00000000000000E+00
     -5.30940961927926E-17   3.80000000000000E-01   3.80000000000000E-01   0.00000000000000E+00   0.00000000000000E+00
      4.21870334808929E-11   6.67767269368404E-15   4.21937111535866E-11   1.60286439957865E-17   3.30000000000000E-01
      3.30000000000000E-01   0.00000000000000E+00   0.00000000000000E+00   0.00000000000000E+00   0.00000000000000E+00
      0.00000000000000E+00   5.07308427379090E-17
      3.60000000000000E-01
      0.00000000000000E+00   0.00000000000000E+00   0.00000000000000E+00   0.00000000000000E+00  -2.41281998973681E-13
     -3.87811828846667E-11  -3.90224648836404E-11  -1.37085475794669E-17   1.44000000000000E-01   1.44000000000000E-01
      0.00000000000000E+00   0.00000000000000E+00   0.00000000000000E+00   0.00000000000000E+00   0.00000000000000E+00
     -5.19582097452205E-17   3.80000000000000E-01   3.80000000000000E-01   0.00000000000000E+00   0.00000000000000E+00
      3.90158156466436E-11   6.64923699683529E-15   3.90224648836404E-11   1.59858163339800E-17   3.30000000000000E-01
      3.30000000000000E-01   0.00000000000000E+00   0.00000000000000E+00   0.00000000000000E+00   0.00000000000000E+00
      0.00000000000000E+00   4.96809409907074E-17
      3.70000000000000E-01
      0.00000000000000E+00   0.00000000000000E+00   0.00000000000000E+00   0.00000000000000E+00  -2.42627303260755E-13