DF-ISE text

Info {
  version   = 1.0
  type      = xyplot
  datasets  = [
    "time"
    "source OuterVoltage" "source InnerVoltage" "source QuasiFermiPotential" "source DisplacementCurrent" "source eCurrent"
    "source hCurrent" "source TotalCurrent" "source Charge" "topGate OuterVoltage" "topGate InnerVoltage"
    "topGate QuasiFermiPotential" "topGate DisplacementCurrent" "topGate eCurrent" "topGate hCurrent" "topGate TotalCurrent"
    "topGate Charge" "drain OuterVoltage" "drain InnerVoltage" "drain QuasiFermiPotential" "drain DisplacementCurrent"
    "drain eCurrent" "drain hCurrent" "drain TotalCurrent" "drain Charge" "bottomGate OuterVoltage"
    "bottomGate InnerVoltage" "bottomGate QuasiFermiPotential" "bottomGate DisplacementCurrent" "bottomGate eCurrent" "bottomGate hCurrent"
    "bottomGate TotalCurrent" "bottomGate Charge" ]
  functions = [
    Time
    OuterVoltage InnerVoltage QuasiFermiPotential DisplacementCurrent eCurrent
    hCurrent TotalCurrent Charge OuterVoltage InnerVoltage
    QuasiFermiPotential DisplacementCurrent eCurrent hCurrent TotalCurrent
    Charge OuterVoltage InnerVoltage QuasiFermiPotential DisplacementCurrent
    eCurrent hCurrent TotalCurrent Charge OuterVoltage
    InnerVoltage QuasiFermiPotential DisplacementCurrent eCurrent hCurrent
    TotalCurrent Charge ]
}

Data {
      1.00000000000000E-02
      0.00000000000000E+00   0.00000000000000E+00   0.00000000000000E+00   0.00000000000000E+00  -2.11248833141862E-13
     -8.49272541224487E-11  -8.51385029555906E-11  -1.29516586787105E-17   4.00000000000000E-03   4.00000000000000E-03
      0.00000000000000E+00   0.00000000000000E+00   0.00000000000000E+00   0.00000000000000E+00   0.00000000000000E+00
     -1.06945454894227E-16   9.00000000000000E-02   9.00000000000000E-02   0.00000000000000E+00   0.00000000000000E+00
      8.51358562227478E-11   2.64673284275427E-15   8.51385029555905E-11   1.04495279295593E-17   4.00000000000000E-01
      4.00000000000000E-01   0.00000000000000E+00   0.00000000000000E+00   0.00000000000000E+00   0.00000000000000E+00
      0.00000000000000E+00   1.09447585643378E-16
      2.00000000000000E-02
      0.00000000000000E+00   0.00000000000000E+00   0.00000000000000E+00   0.00000000000000E+00  -2.12527688896209E-13
     -8.15241736647894E-11  -8.17367013536856E-11  -1.29949961824229E-17   8.00000000000000E-03   8.00000000000000E-03
      0.00000000000000E+00   0.00000000000000E+00   0.00000000000000E+00   0.00000000000000E+00   0.00000000000000E+00
     -1.05808525845532E-16   9.00000000000000E-02   9.00000000000000E-02   0.00000000000000E+00   0.00000000000000E+00
      8.17340651312763E-11   2.63622240942356E-15   8.17367013536857E-11   1.04047949620149E-17   4.00000000000000E-01
      4.00000000000000E-01   0.00000000000000E+00   0.00000000000000E+00   0.00000000000000E+00   0.00000000000000E+00
      0.00000000000000E+00   1.08398727065940E-16
      3.00000000000000E-02
      0.00000000000000E+00   0.00000000000000E+00   0.00000000000000E+00   0.00000000000000E+00  -2.13808015179046E-13
     -7.83054060981496E-11  -7.85192141133286E-11  -1.30383210989799E-17   1.20000000000000E-02   1.20000000000000E-02
      0.00000000000000E+00   0.00000000000000E+00   0.00000000000000E+00   0.00000000000000E+00   0.00000000000000E+00
     -1.04671582005807E-16   9.00000000000000E-02   9.00000000000000E-02   0.00000000000000E+00   0.00000000000000E+00
      7.85165882712044E-11   2.62584212414545E-15   7.85192141133285E-11   1.03600197901887E-17   4.00000000000000E-01
      4.00000000000000E-01   0.00000000000000E+00   0.00000000000000E+00   0.00000000000000E+00   0.00000000000000E+00
      0.00000000000000E+00   1.07349883314598E-16
      4.00000000000000E-02
      0.00000000000000E+00   0.00000000000000E+00   0.00000000000000E+00   0.00000000000000E+00  -2.15089821809958E-13
     -7.52592837965944E-11  -7.54743736184044E-11  -1.30816336631432E-17   1.60000000000000E-02   1.60000000000000E-02
      0.00000000000000E+00   0.00000000000000E+00   0.00000000000000E+00   0.00000000000000E+00   0.00000000000000E+00
     -1.03534622784606E-16   9.00000000000000E-02   9.00000000000000E-02   0.00000000000000E+00   0.00000000000000E+00
      7.54717580570167E-11   2.61556138770937E-15   7.54743736184044E-11   1.03152014662227E-17   4.00000000000000E-01
      4.00000000000000E-01   0.00000000000000E+00   0.00000000000000E+00   0.00000000000000E+00   0.00000000000000E+00
      0.00000000000000E+00   1.06301054981527E-16
      5.00000000000000E-02
      0.00000000000000E+00   0.00000000000000E+00   0.00000000000000E+00   0.00000000000000E+00  -2.16373116366997E-13
     -7.23748766664552E-11  -7.25912497828222E-11  -1.31249341046517E-17   2.00000000000000E-02   2.00000000000000E-02
      0.00000000000000E+00   0.00000000000000E+00   0.00000000000000E+00   0.00000000000000E+00   0.00000000000000E+00
     -1.02397647582160E-16   9.00000000000000E-02   9.00000000000000E-02   0.00000000000000E+00   0.00000000000000E+00
      7.25886444332013E-11   2.60534962071852E-15   7.25912497828220E-11   1.02703390184712E-17   4.00000000000000E-01
      4.00000000000000E-01   0.00000000000000E+00   0.00000000000000E+00   0.00000000000000E+00   0.00000000000000E+00
      0.00000000000000E+00   1.05252242668341E-16
      6.00000000000000E-02
      0.00000000000000E+00   0.00000000000000E+00   0.00000000000000E+00   0.00000000000000E+00  -2.17657904487414E-13
     -6.96419503851656E-11  -6.98596082896530E-11  -1.31682226483377E-17   2.40000000000000E-02   2.40000000000000E-02
      0.00000000000000E+00   0.00000000000000E+00   0.00000000000000E+00   0.00000000000000E+00   0.00000000000000E+00
     -1.01260655788976E-16   9.00000000000000E-02   9.00000000000000E-02   0.00000000000000E+00   0.00000000000000E+00
      6.98570131132246E-11   2.59517642821687E-15   6.98596082896529E-11   1.02254314508241E-17   4.00000000000000E-01
      4.00000000000000E-01   0.00000000000000E+00   0.00000000000000E+00   0.00000000000000E+00   0.00000000000000E+00
      0.00000000000000E+00   1.04203446986489E-16
      7.00000000000000E-02
      0.00000000000000E+00   0.00000000000000E+00   0.00000000000000E+00   0.00000000000000E+00  -2.18944189918223E-13
     -6.70509268353754E-11  -6.72698710252936E-11  -1.32114995142415E-17   2.80000000000000E-02   2.80000000000000E-02
      0.00000000000000E+00   0.00000000000000E+00   0.00000000000000E+00   0.00000000000000E+00   0.00000000000000E+00
     -1.00123646785432E-16   9.00000000000000E-02   9.00000000000000E-02   0.00000000000000E+00   0.00000000000000E+00
      6.72672860135503E-11   2.58501174329907E-15   6.72698710252936E-11   1.01804777420071E-17   4.00000000000000E-01
      4.00000000000000E-01   0.00000000000000E+00   0.00000000000000E+00   0.00000000000000E+00   0.00000000000000E+00
      0.00000000000000E+00   1.03154668557667E-16
      8.00000000000000E-02
      0.00000000000000E+00   0.00000000000000E+00   0.00000000000000E+00   0.00000000000000E+00  -2.20231974793001E-13
     -6.45928465983994E-11  -6.48130785731924E-11  -1.32547649177227E-17   3.20000000000000E-02   3.20000000000000E-02
      0.00000000000000E+00   0.00000000000000E+00   0.00000000000000E+00   0.00000000000000E+00   0.00000000000000E+00
     -9.89866199413692E-17   9.00000000000000E-02   9.00000000000000E-02   0.00000000000000E+00   0.00000000000000E+00
      6.48105037471989E-11   2.57482599344960E-15   6.48130785731923E-11   1.01354768448596E-17   4.00000000000000E-01
      4.00000000000000E-01   0.00000000000000E+00   0.00000000000000E+00   0.00000000000000E+00   0.00000000000000E+00
      0.00000000000000E+00   1.02105908014232E-16
      9.00000000000000E-02
      0.00000000000000E+00   0.00000000000000E+00   0.00000000000000E+00   0.00000000000000E+00  -2.21521259708314E-13
     -6.22593333821432E-11  -6.24808546418515E-11  -1.32980190695684E-17   3.60000000000000E-02   3.60000000000000E-02
      0.00000000000000E+00   0.00000000000000E+00   0.00000000000000E+00   0.00000000000000E+00   0.00000000000000E+00
     -9.78495746156584E-17   9.00000000000000E-02   9.00000000000000E-02   0.00000000000000E+00   0.00000000000000E+00
      6.24782900516072E-11   2.56459024420076E-15   6.24808546418514E-11   1.00904276855884E-17   4.00000000000000E-01
      4.00000000000000E-01   0.00000000000000E+00   0.00000000000000E+00   0.00000000000000E+00   0.00000000000000E+00
      0.00000000000000E+00   1.01057165999639E-16
      1.00000000000000E-01
      0.00000000000000E+00   0.00000000000000E+00   0.00000000000000E+00   0.00000000000000E+00  -2.22812043860851E-13
     -6.00425602691448E-11  -6.02653723130057E-11  -1.33412621760994E-17   4.00000000000000E-02   4.00000000000000E-02
      0.00000000000000E+00   0.00000000000000E+00   0.00000000000000E+00   0.00000000000000E+00   0.00000000000000E+00
     -9.67125101557695E-17   9.00000000000000E-02   9.00000000000000E-02   0.00000000000000E+00   0.00000000000000E+00
      6.02628180366496E-11   2.55427635605644E-15   6.02653723130056E-11   1.00453291629958E-17   4.00000000000000E-01
      4.00000000000000E-01   0.00000000000000E+00   0.00000000000000E+00   0.00000000000000E+00   0.00000000000000E+00
      0.00000000000000E+00   1.00008443168873E-16
      1.10000000000000E-01
      0.00000000000000E+00   0.00000000000000E+00   0.00000000000000E+00   0.00000000000000E+00  -2.24104325278004E-13
     -5.79352176800232E-11  -5.81593220053012E-11  -1.33844944392728E-17   4.40000000000000E-02   4.40000000000000E-02
      0.00000000000000E+00   0.00000000000000E+00   0.00000000000000E+00   0.00000000000000E+00   0.00000000000000E+00
     -9.55754258973208E-17   9.00000000000000E-02   9.00000000000000E-02   0.00000000000000E+00   0.00000000000000E+00
      5.81567781481647E-11   2.54385713646898E-15   5.81593220053012E-11   1.00001801476822E-17   4.00000000000000E-01
      4.00000000000000E-01   0.00000000000000E+00   0.00000000000000E+00   0.00000000000000E+00   0.00000000000000E+00
      0.00000000000000E+00   9.89597401889114E-17
      1.20000000000000E-01
      0.00000000000000E+00   0.00000000000000E+00   0.00000000000000E+00   0.00000000000000E+00  -2.25398100768548E-13
     -5.59304829565787E-11  -5.61558810573472E-11  -1.34277160567826E-17   4.80000000000000E-02   4.80000000000000E-02
      0.00000000000000E+00   0.00000000000000E+00   0.00000000000000E+00   0.00000000000000E+00   0.00000000000000E+00
     -9.44383211636195E-17   9.00000000000000E-02   9.00000000000000E-02   0.00000000000000E+00   0.00000000000000E+00
      5.61533477508753E-11   2.53330647183770E-15   5.61558810573471E-11   9.95497948122015E-18   4.00000000000000E-01
      4.00000000000000E-01   0.00000000000000E+00   0.00000000000000E+00   0.00000000000000E+00   0.00000000000000E+00
      0.00000000000000E+00   9.79110577391820E-17
      1.30000000000000E-01
      0.00000000000000E+00   0.00000000000000E+00   0.00000000000000E+00   0.00000000000000E+00  -2.26693366152593E-13
     -5.40219914771074E-11  -5.42486848432600E-11  -1.34709272221579E-17   5.20000000000000E-02   5.20000000000000E-02
      0.00000000000000E+00   0.00000000000000E+00   0.00000000000000E+00   0.00000000000000E+00   0.00000000000000E+00
     -9.33011952651882E-17   9.00000000000000E-02   9.00000000000000E-02   0.00000000000000E+00   0.00000000000000E+00
      5.42461622437814E-11   2.52259947867734E-15   5.42486848432600E-11   9.90972597530025E-18   4.00000000000000E-01
      4.00000000000000E-01   0.00000000000000E+00   0.00000000000000E+00   0.00000000000000E+00   0.00000000000000E+00
      0.00000000000000E+00   9.68623965120458E-17
      1.40000000000000E-01
      0.00000000000000E+00   0.00000000000000E+00   0.00000000000000E+00   0.00000000000000E+00  -2.27990116291234E-13
     -5.22038092239270E-11  -5.24317993402182E-11  -1.35141281248579E-17   5.60000000000000E-02   5.60000000000000E-02
      0.00000000000000E+00   0.00000000000000E+00   0.00000000000000E+00   0.00000000000000E+00   0.00000000000000E+00
     -9.21640474992770E-17   9.00000000000000E-02   9.00000000000000E-02   0.00000000000000E+00   0.00000000000000E+00
      5.24292876275917E-11   2.51171262644682E-15   5.24317993402182E-11   9.86441841084612E-18   4.00000000000000E-01
      4.00000000000000E-01   0.00000000000000E+00   0.00000000000000E+00   0.00000000000000E+00   0.00000000000000E+00
      0.00000000000000E+00   9.58137572132889E-17
      1.50000000000000E-01
      0.00000000000000E+00   0.00000000000000E+00   0.00000000000000E+00   0.00000000000000E+00  -2.29288345265154E-13
     -5.04704067300681E-11  -5.06996950753332E-11  -1.35573189503653E-17   6.00000000000000E-02   6.00000000000000E-02
      0.00000000000000E+00   0.00000000000000E+00   0.00000000000000E+00   0.00000000000000E+00   0.00000000000000E+00
     -9.10268771493622E-17   9.00000000000000E-02   9.00000000000000E-02   0.00000000000000E+00   0.00000000000000E+00
      5.06971944514701E-11   2.50062386316597E-15   5.06996950753332E-11   9.81905553709776E-18   4.00000000000000E-01
      4.00000000000000E-01   0.00000000000000E+00   0.00000000000000E+00   0.00000000000000E+00   0.00000000000000E+00
      0.00000000000000E+00   9.47651405626296E-17
      1.60000000000000E-01
      0.00000000000000E+00   0.00000000000000E+00   0.00000000000000E+00   0.00000000000000E+00  -2.30588046328291E-13
     -4.88166343382368E-11  -4.90472223845651E-11  -1.36004998802765E-17   6.40000000000000E-02   6.40000000000000E-02
      0.00000000000000E+00   0.00000000000000E+00   0.00000000000000E+00   0.00000000000000E+00   0.00000000000000E+00
     -8.98896834846278E-17   9.00000000000000E-02   9.00000000000000E-02   0.00000000000000E+00   0.00000000000000E+00
      4.90447330718388E-11   2.48931272628197E-15   4.90472223845650E-11   9.77363607066143E-18   4.00000000000000E-01
      4.00000000000000E-01   0.00000000000000E+00   0.00000000000000E+00   0.00000000000000E+00   0.00000000000000E+00
      0.00000000000000E+00   9.37165472942429E-17
      1.70000000000000E-01
      0.00000000000000E+00   0.00000000000000E+00   0.00000000000000E+00   0.00000000000000E+00  -2.31889212100292E-13
     -4.72376987107539E-11  -4.74695879228542E-11  -1.36436710923903E-17   6.80000000000000E-02   6.80000000000000E-02
      0.00000000000000E+00   0.00000000000000E+00   0.00000000000000E+00   0.00000000000000E+00   0.00000000000000E+00
     -8.87524657594329E-17   9.00000000000000E-02   9.00000000000000E-02   0.00000000000000E+00   0.00000000000000E+00
      4.74671101624101E-11   2.47776044416004E-15   4.74695879228542E-11   9.72815869452425E-18   4.00000000000000E-01
      4.00000000000000E-01   0.00000000000000E+00   0.00000000000000E+00   0.00000000000000E+00   0.00000000000000E+00
      0.00000000000000E+00   9.26679781572989E-17
      1.80000000000000E-01
      0.00000000000000E+00   0.00000000000000E+00   0.00000000000000E+00   0.00000000000000E+00  -2.33191834526536E-13
     -4.57291405341664E-11  -4.59623323686929E-11  -1.36868327607936E-17   7.20000000000000E-02   7.20000000000000E-02
      0.00000000000000E+00   0.00000000000000E+00   0.00000000000000E+00   0.00000000000000E+00   0.00000000000000E+00
     -8.76152232127593E-17   9.00000000000000E-02   9.00000000000000E-02   0.00000000000000E+00   0.00000000000000E+00
      4.59598664186634E-11   2.46595002954185E-15   4.59623323686929E-11   9.68262205703191E-18   4.00000000000000E-01
      4.00000000000000E-01   0.00000000000000E+00   0.00000000000000E+00   0.00000000000000E+00   0.00000000000000E+00
      0.00000000000000E+00   9.16194339165210E-17
      1.90000000000000E-01
      0.00000000000000E+00   0.00000000000000E+00   0.00000000000000E+00   0.00000000000000E+00  -2.34495905047461E-13
     -4.42868133666356E-11  -4.45213092716830E-11  -1.37299850559456E-17   7.60000000000000E-02   7.60000000000000E-02
      0.00000000000000E+00   0.00000000000000E+00   0.00000000000000E+00   0.00000000000000E+00   0.00000000000000E+00
     -8.64779550676426E-17   9.00000000000000E-02   9.00000000000000E-02   0.00000000000000E+00   0.00000000000000E+00
      4.45188554053316E-11   2.45386635146739E-15   4.45213092716831E-11   9.63702477082746E-18   4.00000000000000E-01
      4.00000000000000E-01   0.00000000000000E+00   0.00000000000000E+00   0.00000000000000E+00   0.00000000000000E+00
      0.00000000000000E+00   9.05709153527608E-17
      2.00000000000000E-01
      0.00000000000000E+00   0.00000000000000E+00   0.00000000000000E+00   0.00000000000000E+00  -2.35801414632598E-13
     -4.29068635801525E-11  -4.31426649947851E-11  -1.37731281447589E-17   8.00000000000000E-02   8.00000000000000E-02
      0.00000000000000E+00   0.00000000000000E+00   0.00000000000000E+00   0.00000000000000E+00   0.00000000000000E+00
     -8.53406605305836E-17   9.00000000000000E-02   9.00000000000000E-02   0.00000000000000E+00   0.00000000000000E+00
      4.31402234985820E-11   2.44149620313148E-15   4.31426649947851E-11   9.59136541174910E-18   4.00000000000000E-01
      4.00000000000000E-01   0.00000000000000E+00   0.00000000000000E+00   0.00000000000000E+00   0.00000000000000E+00
      0.00000000000000E+00   8.95224232635934E-17
      2.10000000000000E-01
      0.00000000000000E+00   0.00000000000000E+00   0.00000000000000E+00   0.00000000000000E+00  -2.37108353706307E-13
     -4.15857113530222E-11  -4.18228197067285E-11  -1.38162621906795E-17   8.40000000000000E-02   8.40000000000000E-02
      0.00000000000000E+00   0.00000000000000E+00   0.00000000000000E+00   0.00000000000000E+00   0.00000000000000E+00
     -8.42033387909380E-17   9.00000000000000E-02   9.00000000000000E-02   0.00000000000000E+00   0.00000000000000E+00
      4.18203908783770E-11   2.42882835146131E-15   4.18228197067285E-11   9.54564251768474E-18   4.00000000000000E-01
      4.00000000000000E-01   0.00000000000000E+00   0.00000000000000E+00   0.00000000000000E+00   0.00000000000000E+00
      0.00000000000000E+00   8.84739584639328E-17
      2.20000000000000E-01
      0.00000000000000E+00   0.00000000000000E+00   0.00000000000000E+00   0.00000000000000E+00  -2.38416712398532E-13
     -4.03200326710642E-11  -4.05584493834628E-11  -1.38593873537641E-17   8.80000000000000E-02   8.80000000000000E-02
      0.00000000000000E+00   0.00000000000000E+00   0.00000000000000E+00   0.00000000000000E+00   0.00000000000000E+00
     -8.30659890202860E-17   9.00000000000000E-02   9.00000000000000E-02   0.00000000000000E+00   0.00000000000000E+00
      4.05560335298952E-11   2.41585356751083E-15   4.05584493834628E-11   9.49985458738129E-18   4.00000000000000E-01
      4.00000000000000E-01   0.00000000000000E+00   0.00000000000000E+00   0.00000000000000E+00   0.00000000000000E+00
      0.00000000000000E+00   8.74255217866688E-17
      2.30000000000000E-01
      0.00000000000000E+00   0.00000000000000E+00   0.00000000000000E+00   0.00000000000000E+00  -2.39726480417251E-13
     -3.91067422985693E-11  -3.93464687789866E-11  -1.39025037907553E-17   9.20000000000000E-02   9.20000000000000E-02
      0.00000000000000E+00   0.00000000000000E+00   0.00000000000000E+00   0.00000000000000E+00   0.00000000000000E+00
     -8.19286103717777E-17   9.00000000000000E-02   9.00000000000000E-02   0.00000000000000E+00   0.00000000000000E+00
      3.93440662143374E-11   2.40256464921948E-15   3.93464687789866E-11   9.45400007920563E-18   4.00000000000000E-01
      4.00000000000000E-01   0.00000000000000E+00   0.00000000000000E+00   0.00000000000000E+00   0.00000000000000E+00
      0.00000000000000E+00   8.63771140833274E-17
      2.40000000000000E-01
      0.00000000000000E+00   0.00000000000000E+00   0.00000000000000E+00   0.00000000000000E+00  -2.41037647245960E-13
     -3.79429776822585E-11  -3.81840153295045E-11  -1.39456116551553E-17   9.60000000000000E-02   9.60000000000000E-02
      0.00000000000000E+00   0.00000000000000E+00   0.00000000000000E+00   0.00000000000000E+00   0.00000000000000E+00
     -8.07912019794548E-17   9.00000000000000E-02   9.00000000000000E-02   0.00000000000000E+00   0.00000000000000E+00
      3.81816263730810E-11   2.38895642345189E-15   3.81840153295045E-11   9.40807740985510E-18   4.00000000000000E-01
      4.00000000000000E-01   0.00000000000000E+00   0.00000000000000E+00   0.00000000000000E+00   0.00000000000000E+00
      0.00000000000000E+00   8.53287362247550E-17
      2.50000000000000E-01
      0.00000000000000E+00   0.00000000000000E+00   0.00000000000000E+00   0.00000000000000E+00  -2.42350201944272E-13
     -3.68260837534041E-11  -3.70684339553484E-11  -1.39887110972972E-17   1.00000000000000E-01   1.00000000000000E-01
      0.00000000000000E+00   0.00000000000000E+00   0.00000000000000E+00   0.00000000000000E+00   0.00000000000000E+00
     -7.96537629575458E-17   9.00000000000000E-02   9.00000000000000E-02   0.00000000000000E+00   0.00000000000000E+00
      3.70660589296149E-11   2.37502573350605E-15   3.70684339553484E-11   9.36208495301437E-18   4.00000000000000E-01
      4.00000000000000E-01   0.00000000000000E+00   0.00000000000000E+00   0.00000000000000E+00   0.00000000000000E+00
      0.00000000000000E+00   8.42803891018287E-17
      2.60000000000000E-01
      0.00000000000000E+00   0.00000000000000E+00   0.00000000000000E+00   0.00000000000000E+00  -2.43664133521730E-13
     -3.57535985948883E-11  -3.59972627284101E-11  -1.40318022644145E-17   1.04000000000000E-01   1.04000000000000E-01
      0.00000000000000E+00   0.00000000000000E+00   0.00000000000000E+00   0.00000000000000E+00   0.00000000000000E+00
     -7.85162923997341E-17   9.00000000000000E-02   9.00000000000000E-02   0.00000000000000E+00   0.00000000000000E+00
      3.59949019569976E-11   2.36077141252583E-15   3.59972627284101E-11   9.31602103795570E-18   4.00000000000000E-01
      4.00000000000000E-01   0.00000000000000E+00   0.00000000000000E+00   0.00000000000000E+00   0.00000000000000E+00
      0.00000000000000E+00   8.32320736261929E-17
      2.70000000000000E-01
      0.00000000000000E+00   0.00000000000000E+00   0.00000000000000E+00   0.00000000000000E+00  -2.44979430637310E-13
     -3.47232399413406E-11  -3.49682193719779E-11  -1.40748853007089E-17   1.08000000000000E-01   1.08000000000000E-01
      0.00000000000000E+00   0.00000000000000E+00   0.00000000000000E+00   0.00000000000000E+00   0.00000000000000E+00
     -7.73787893783967E-17   9.00000000000000E-02   9.00000000000000E-02   0.00000000000000E+00   0.00000000000000E+00
      3.49658731777400E-11   2.34619423788733E-15   3.49682193719779E-11   9.26988394807930E-18   4.00000000000000E-01
      4.00000000000000E-01   0.00000000000000E+00   0.00000000000000E+00   0.00000000000000E+00   0.00000000000000E+00
      0.00000000000000E+00   8.21837907310263E-17
      2.80000000000000E-01
      0.00000000000000E+00   0.00000000000000E+00   0.00000000000000E+00   0.00000000000000E+00  -2.46296081740623E-13
     -3.37328924816575E-11  -3.39791885633981E-11  -1.41179603474157E-17   1.12000000000000E-01   1.12000000000000E-01
      0.00000000000000E+00   0.00000000000000E+00   0.00000000000000E+00   0.00000000000000E+00   0.00000000000000E+00
     -7.62412529438123E-17   9.00000000000000E-02   9.00000000000000E-02   0.00000000000000E+00   0.00000000000000E+00
      3.39768572665239E-11   2.33129687418384E-15   3.39791885633981E-11   9.22367191939033E-18   4.00000000000000E-01
      4.00000000000000E-01   0.00000000000000E+00   0.00000000000000E+00   0.00000000000000E+00   0.00000000000000E+00
      0.00000000000000E+00   8.11355413718377E-17
      2.90000000000000E-01
      0.00000000000000E+00   0.00000000000000E+00   0.00000000000000E+00   0.00000000000000E+00  -2.47614075295254E-13
     -3.27805959341835E-11  -3.30282100094787E-11  -1.41610275428685E-17   1.16000000000000E-01   1.16000000000000E-01
      0.00000000000000E+00   0.00000000000000E+00   0.00000000000000E+00   0.00000000000000E+00   0.00000000000000E+00
     -7.51036821233359E-17   9.00000000000000E-02   9.00000000000000E-02   0.00000000000000E+00   0.00000000000000E+00
      3.30258939256775E-11   2.31608380126295E-15   3.30282100094787E-11   9.17738313890866E-18   4.00000000000000E-01
      4.00000000000000E-01   0.00000000000000E+00   0.00000000000000E+00   0.00000000000000E+00   0.00000000000000E+00
      0.00000000000000E+00   8.00873265272957E-17
      3.00000000000000E-01
      0.00000000000000E+00   0.00000000000000E+00   0.00000000000000E+00   0.00000000000000E+00  -2.48933399448373E-13
     -3.18645338656562E-11  -3.21134672651046E-11  -1.42040870225605E-17   1.20000000000000E-01   1.20000000000000E-01
      0.00000000000000E+00   0.00000000000000E+00   0.00000000000000E+00   0.00000000000000E+00   0.00000000000000E+00
     -7.39660759205386E-17   9.00000000000000E-02   9.00000000000000E-02   0.00000000000000E+00   0.00000000000000E+00
      3.21111667038773E-11   2.30056122724960E-15   3.21134672651045E-11   9.13101574300748E-18   4.00000000000000E-01
      4.00000000000000E-01   0.00000000000000E+00   0.00000000000000E+00   0.00000000000000E+00   0.00000000000000E+00
      0.00000000000000E+00   7.90391472000916E-17
      3.10000000000000E-01
      0.00000000000000E+00   0.00000000000000E+00   0.00000000000000E+00   0.00000000000000E+00  -2.50254042315662E-13
     -3.09830232257331E-11  -3.12332772680488E-11  -1.42471389192056E-17   1.24000000000000E-01   1.24000000000000E-01
      0.00000000000000E+00   0.00000000000000E+00   0.00000000000000E+00   0.00000000000000E+00   0.00000000000000E+00
     -7.28284333143102E-17   9.00000000000000E-02   9.00000000000000E-02   0.00000000000000E+00   0.00000000000000E+00
      3.12309925310604E-11   2.28473698831302E-15   3.12332772680488E-11   9.08456781567640E-18   4.00000000000000E-01
      4.00000000000000E-01   0.00000000000000E+00   0.00000000000000E+00   0.00000000000000E+00   0.00000000000000E+00
      0.00000000000000E+00   7.79910044178395E-17
      3.20000000000000E-01
      0.00000000000000E+00   0.00000000000000E+00   0.00000000000000E+00   0.00000000000000E+00  -2.51575991919323E-13
     -3.01345045695309E-11  -3.03860805614502E-11  -1.42901833627969E-17   1.28000000000000E-01   1.28000000000000E-01
      0.00000000000000E+00   0.00000000000000E+00   0.00000000000000E+00   0.00000000000000E+00   0.00000000000000E+00
     -7.16907532579224E-17   9.00000000000000E-02   9.00000000000000E-02   0.00000000000000E+00   0.00000000000000E+00
      3.03838119410094E-11   2.26862044078095E-15   3.03860805614502E-11   9.03803738670427E-18   4.00000000000000E-01
      4.00000000000000E-01   0.00000000000000E+00   0.00000000000000E+00   0.00000000000000E+00   0.00000000000000E+00
      0.00000000000000E+00   7.69428992340149E-17
      3.30000000000000E-01
      0.00000000000000E+00   0.00000000000000E+00   0.00000000000000E+00   0.00000000000000E+00  -2.52899236062525E-13
     -2.93175329411427E-11  -2.95704321772053E-11  -1.43332204806632E-17   1.32000000000000E-01   1.32000000000000E-01
      0.00000000000000E+00   0.00000000000000E+00   0.00000000000000E+00   0.00000000000000E+00   0.00000000000000E+00
     -7.05530346780486E-17   9.00000000000000E-02   9.00000000000000E-02   0.00000000000000E+00   0.00000000000000E+00
      2.95681799548671E-11   2.25222233814401E-15   2.95704321772053E-11   8.99142242977699E-18   4.00000000000000E-01
      4.00000000000000E-01   0.00000000000000E+00   0.00000000000000E+00   0.00000000000000E+00   0.00000000000000E+00
      0.00000000000000E+00   7.58948327289348E-17
      3.40000000000000E-01
      0.00000000000000E+00   0.00000000000000E+00   0.00000000000000E+00   0.00000000000000E+00  -2.54223762782006E-13
     -2.85307693916063E-11  -2.87849931543883E-11  -1.43762503975251E-17   1.36000000000000E-01   1.36000000000000E-01
      0.00000000000000E+00   0.00000000000000E+00   0.00000000000000E+00   0.00000000000000E+00   0.00000000000000E+00
     -6.94152764737405E-17   9.00000000000000E-02   9.00000000000000E-02   0.00000000000000E+00   0.00000000000000E+00
      2.87827575996847E-11   2.23555470365556E-15   2.87849931543883E-11   8.94472086048470E-18   4.00000000000000E-01
      4.00000000000000E-01   0.00000000000000E+00   0.00000000000000E+00   0.00000000000000E+00   0.00000000000000E+00
      0.00000000000000E+00   7.48468060107810E-17
      3.50000000000000E-01
      0.00000000000000E+00   0.00000000000000E+00   0.00000000000000E+00   0.00000000000000E+00  -2.55549559674112E-13
     -2.77729731052459E-11  -2.80285226649200E-11  -1.44192732355479E-17   1.40000000000000E-01   1.40000000000000E-01
      0.00000000000000E+00   0.00000000000000E+00   0.00000000000000E+00   0.00000000000000E+00   0.00000000000000E+00
     -6.82774775153549E-17   9.00000000000000E-02   9.00000000000000E-02   0.00000000000000E+00   0.00000000000000E+00
      2.80263040342286E-11   2.21863069140568E-15   2.80285226649200E-11   8.89793053423275E-18   4.00000000000000E-01
      4.00000000000000E-01   0.00000000000000E+00   0.00000000000000E+00   0.00000000000000E+00   0.00000000000000E+00
      0.00000000000000E+00   7.37988202166700E-17
      3.60000000000000E-01
      0.00000000000000E+00   0.00000000000000E+00   0.00000000000000E+00   0.00000000000000E+00  -2.56876614720966E-13
     -2.70429941087754E-11  -2.72998707234964E-11  -1.44622891143936E-17   1.44000000000000E-01   1.44000000000000E-01
      0.00000000000000E+00   0.00000000000000E+00   0.00000000000000E+00   0.00000000000000E+00   0.00000000000000E+00
     -6.71396366434300E-17   9.00000000000000E-02   9.00000000000000E-02   0.00000000000000E+00   0.00000000000000E+00
      2.72976692590510E-11   2.20146444538707E-15   2.72998707234964E-11   8.85104924405026E-18   4.00000000000000E-01
      4.00000000000000E-01   0.00000000000000E+00   0.00000000000000E+00   0.00000000000000E+00   0.00000000000000E+00
      0.00000000000000E+00   7.27508765137734E-17
      3.70000000000000E-01
      0.00000000000000E+00   0.00000000000000E+00   0.00000000000000E+00   0.00000000000000E+00  -2.58204915438654E-13