DF-ISE text

Info {
  version   = 1.0
  type      = xyplot
  datasets  = [
    "time"
    "source OuterVoltage" "source InnerVoltage" "source QuasiFermiPotential" "source DisplacementCurrent" "source eCurrent"
    "source hCurrent" "source TotalCurrent" "source Charge" "topGate OuterVoltage" "topGate InnerVoltage"
    "topGate QuasiFermiPotential" "topGate DisplacementCurrent" "topGate eCurrent" "topGate hCurrent" "topGate TotalCurrent"
    "topGate Charge" "drain OuterVoltage" "drain InnerVoltage" "drain QuasiFermiPotential" "drain DisplacementCurrent"
    "drain eCurrent" "drain hCurrent" "drain TotalCurrent" "drain Charge" "bottomGate OuterVoltage"
    "bottomGate InnerVoltage" "bottomGate QuasiFermiPotential" "bottomGate DisplacementCurrent" "bottomGate eCurrent" "bottomGate hCurrent"
    "bottomGate TotalCurrent" "bottomGate Charge" ]
  functions = [
    Time
    OuterVoltage InnerVoltage QuasiFermiPotential DisplacementCurrent eCurrent
    hCurrent TotalCurrent Charge OuterVoltage InnerVoltage
    QuasiFermiPotential DisplacementCurrent eCurrent hCurrent TotalCurrent
    Charge OuterVoltage InnerVoltage QuasiFermiPotential DisplacementCurrent
    eCurrent hCurrent TotalCurrent Charge OuterVoltage
    InnerVoltage QuasiFermiPotential DisplacementCurrent eCurrent hCurrent
    TotalCurrent Charge ]
}

Data {
      1.00000000000000E-02
      0.00000000000000E+00   0.00000000000000E+00   0.00000000000000E+00   0.00000000000000E+00  -1.36451044845415E-13
     -2.85273966433584E-12  -2.98919070918125E-12  -1.14246179028391E-17   4.00000000000000E-03   4.00000000000000E-03
      0.00000000000000E+00   0.00000000000000E+00   0.00000000000000E+00   0.00000000000000E+00   0.00000000000000E+00
     -6.96802786238234E-17   4.00000000000000E-02   4.00000000000000E-02   0.00000000000000E+00   0.00000000000000E+00
      2.98656112372534E-12   2.62958545592016E-15   2.98919070918126E-12   1.08947273986259E-17   2.60000000000000E-01
      2.60000000000000E-01   0.00000000000000E+00   0.00000000000000E+00   0.00000000000000E+00   0.00000000000000E+00
      0.00000000000000E+00   7.02101691280367E-17
      2.00000000000000E-02
      0.00000000000000E+00   0.00000000000000E+00   0.00000000000000E+00   0.00000000000000E+00  -1.37423677915693E-13
     -2.64217295749499E-12  -2.77959663541068E-12  -1.14685934476880E-17   8.00000000000000E-03   8.00000000000000E-03
      0.00000000000000E+00   0.00000000000000E+00   0.00000000000000E+00   0.00000000000000E+00   0.00000000000000E+00
     -6.85432176643675E-17   4.00000000000000E-02   4.00000000000000E-02   0.00000000000000E+00   0.00000000000000E+00
      2.77698550806981E-12   2.61112734087556E-15   2.77959663541069E-12   1.08503691641819E-17   2.60000000000000E-01
      2.60000000000000E-01   0.00000000000000E+00   0.00000000000000E+00   0.00000000000000E+00   0.00000000000000E+00
      0.00000000000000E+00   6.91614419478737E-17
      3.00000000000000E-02
      0.00000000000000E+00   0.00000000000000E+00   0.00000000000000E+00   0.00000000000000E+00  -1.38398341225437E-13
     -2.45118828485886E-12  -2.58958662608430E-12  -1.15125438526766E-17   1.20000000000000E-02   1.20000000000000E-02
      0.00000000000000E+00   0.00000000000000E+00   0.00000000000000E+00   0.00000000000000E+00   0.00000000000000E+00
     -6.74061523794153E-17   4.00000000000000E-02   4.00000000000000E-02   0.00000000000000E+00   0.00000000000000E+00
      2.58699396257739E-12   2.59266350690439E-15   2.58958662608430E-12   1.08059771231586E-17   2.60000000000000E-01
      2.60000000000000E-01   0.00000000000000E+00   0.00000000000000E+00   0.00000000000000E+00   0.00000000000000E+00
      0.00000000000000E+00   6.81127191089334E-17
      4.00000000000000E-02
      0.00000000000000E+00   0.00000000000000E+00   0.00000000000000E+00   0.00000000000000E+00  -1.39375026084004E-13
     -2.27790632655776E-12  -2.41728135264176E-12  -1.15564696311465E-17   1.60000000000000E-02   1.60000000000000E-02
      0.00000000000000E+00   0.00000000000000E+00   0.00000000000000E+00   0.00000000000000E+00   0.00000000000000E+00
     -6.62690821396673E-17   4.00000000000000E-02   4.00000000000000E-02   0.00000000000000E+00   0.00000000000000E+00
      2.41470715922203E-12   2.57419341973702E-15   2.41728135264176E-12   1.07615505306989E-17   2.60000000000000E-01
      2.60000000000000E-01   0.00000000000000E+00   0.00000000000000E+00   0.00000000000000E+00   0.00000000000000E+00
      0.00000000000000E+00   6.70640012401149E-17
      5.00000000000000E-02
      0.00000000000000E+00   0.00000000000000E+00   0.00000000000000E+00   0.00000000000000E+00  -1.40353722620835E-13
     -2.12061376036130E-12  -2.26096748298213E-12  -1.16003712847657E-17   2.00000000000000E-02   2.00000000000000E-02
      0.00000000000000E+00   0.00000000000000E+00   0.00000000000000E+00   0.00000000000000E+00   0.00000000000000E+00
     -6.51320063128889E-17   4.00000000000000E-02   4.00000000000000E-02   0.00000000000000E+00   0.00000000000000E+00
      2.25841176617592E-12   2.55571680621020E-15   2.26096748298213E-12   1.07170886243359E-17   2.60000000000000E-01
      2.60000000000000E-01   0.00000000000000E+00   0.00000000000000E+00   0.00000000000000E+00   0.00000000000000E+00
      0.00000000000000E+00   6.60152889733186E-17
      6.00000000000000E-02
      0.00000000000000E+00   0.00000000000000E+00   0.00000000000000E+00   0.00000000000000E+00  -1.41334419956788E-13
     -1.97775096392987E-12  -2.11908538388666E-12  -1.16442493038097E-17   2.40000000000000E-02   2.40000000000000E-02
      0.00000000000000E+00   0.00000000000000E+00   0.00000000000000E+00   0.00000000000000E+00   0.00000000000000E+00
     -6.39949242635045E-17   4.00000000000000E-02   4.00000000000000E-02   0.00000000000000E+00   0.00000000000000E+00
      2.11654815015537E-12   2.53723373129074E-15   2.11908538388666E-12   1.06725906234672E-17   2.60000000000000E-01
      2.60000000000000E-01   0.00000000000000E+00   0.00000000000000E+00   0.00000000000000E+00   0.00000000000000E+00
      0.00000000000000E+00   6.49665829438470E-17
      7.00000000000000E-02
      0.00000000000000E+00   0.00000000000000E+00   0.00000000000000E+00   0.00000000000000E+00  -1.42317106299423E-13
     -1.84790039887948E-12  -1.99021750517890E-12  -1.16881041674358E-17   2.80000000000000E-02   2.80000000000000E-02
      0.00000000000000E+00   0.00000000000000E+00   0.00000000000000E+00   0.00000000000000E+00   0.00000000000000E+00
     -6.28578353521888E-17   4.00000000000000E-02   4.00000000000000E-02   0.00000000000000E+00   0.00000000000000E+00
      1.98769876065155E-12   2.51874452735666E-15   1.99021750517890E-12   1.06280557288169E-17   2.60000000000000E-01
      2.60000000000000E-01   0.00000000000000E+00   0.00000000000000E+00   0.00000000000000E+00   0.00000000000000E+00
      0.00000000000000E+00   6.39178837908077E-17
      8.00000000000000E-02
      0.00000000000000E+00   0.00000000000000E+00   0.00000000000000E+00   0.00000000000000E+00  -1.43301769019767E-13
     -1.72977565658558E-12  -1.87307742560535E-12  -1.17319363439509E-17   3.20000000000000E-02   3.20000000000000E-02
      0.00000000000000E+00   0.00000000000000E+00   0.00000000000000E+00   0.00000000000000E+00   0.00000000000000E+00
     -6.17207389354549E-17   4.00000000000000E-02   4.00000000000000E-02   0.00000000000000E+00   0.00000000000000E+00
      1.87057717581046E-12   2.50024979488504E-15   1.87307742560535E-12   1.05834831218852E-17   2.60000000000000E-01
      2.60000000000000E-01   0.00000000000000E+00   0.00000000000000E+00   0.00000000000000E+00   0.00000000000000E+00
      0.00000000000000E+00   6.28691921575206E-17
      9.00000000000000E-02
      0.00000000000000E+00   0.00000000000000E+00   0.00000000000000E+00   0.00000000000000E+00  -1.44288394802640E-13
     -1.62221114507590E-12  -1.76649953987854E-12  -1.17757462910722E-17   3.60000000000000E-02   3.60000000000000E-02
      0.00000000000000E+00   0.00000000000000E+00   0.00000000000000E+00   0.00000000000000E+00   0.00000000000000E+00
     -6.05836343652390E-17   4.00000000000000E-02   4.00000000000000E-02   0.00000000000000E+00   0.00000000000000E+00
      1.76401778942104E-12   2.48175045749918E-15   1.76649953987854E-12   1.05388719643833E-17   2.60000000000000E-01
      2.60000000000000E-01   0.00000000000000E+00   0.00000000000000E+00   0.00000000000000E+00   0.00000000000000E+00
      0.00000000000000E+00   6.18205086919278E-17
      1.00000000000000E-01
      0.00000000000000E+00   0.00000000000000E+00   0.00000000000000E+00   0.00000000000000E+00  -1.45276969691245E-13
     -1.52415239584880E-12  -1.66942936554005E-12  -1.18195344561822E-17   4.00000000000000E-02   4.00000000000000E-02
      0.00000000000000E+00   0.00000000000000E+00   0.00000000000000E+00   0.00000000000000E+00   0.00000000000000E+00
     -5.94465209884812E-17   4.00000000000000E-02   4.00000000000000E-02   0.00000000000000E+00   0.00000000000000E+00
      1.66696611789249E-12   2.46324764755808E-15   1.66942936554005E-12   1.04942213976551E-17   2.60000000000000E-01
      2.60000000000000E-01   0.00000000000000E+00   0.00000000000000E+00   0.00000000000000E+00   0.00000000000000E+00
      0.00000000000000E+00   6.07718340470082E-17
      1.10000000000000E-01
      0.00000000000000E+00   0.00000000000000E+00   0.00000000000000E+00   0.00000000000000E+00  -1.46267479180393E-13
     -1.43464696976841E-12  -1.58091444894880E-12  -1.18633012765769E-17   4.40000000000000E-02   4.40000000000000E-02
      0.00000000000000E+00   0.00000000000000E+00   0.00000000000000E+00   0.00000000000000E+00   0.00000000000000E+00
     -5.83093981467015E-17   4.00000000000000E-02   4.00000000000000E-02   0.00000000000000E+00   0.00000000000000E+00
      1.57846970616681E-12   2.44474278199684E-15   1.58091444894881E-12   1.04495305420818E-17   2.60000000000000E-01
      2.60000000000000E-01   0.00000000000000E+00   0.00000000000000E+00   0.00000000000000E+00   0.00000000000000E+00
      0.00000000000000E+00   5.97231688811967E-17
      1.20000000000000E-01
      0.00000000000000E+00   0.00000000000000E+00   0.00000000000000E+00   0.00000000000000E+00  -1.47259908286136E-13
     -1.35283594029533E-12  -1.50009584858147E-12  -1.19070471797084E-17   4.80000000000000E-02   4.80000000000000E-02
      0.00000000000000E+00   0.00000000000000E+00   0.00000000000000E+00   0.00000000000000E+00   0.00000000000000E+00
     -5.71722651755708E-17   4.00000000000000E-02   4.00000000000000E-02   0.00000000000000E+00   0.00000000000000E+00
      1.49766961106022E-12   2.42623752124736E-15   1.50009584858147E-12   1.04047984964709E-17   2.60000000000000E-01
      2.60000000000000E-01   0.00000000000000E+00   0.00000000000000E+00   0.00000000000000E+00   0.00000000000000E+00
      0.00000000000000E+00   5.86745138588082E-17
      1.30000000000000E-01
      0.00000000000000E+00   0.00000000000000E+00   0.00000000000000E+00   0.00000000000000E+00  -1.48254241596375E-13
     -1.27794593253703E-12  -1.42620017413341E-12  -1.19507725834204E-17   5.20000000000000E-02   5.20000000000000E-02
      0.00000000000000E+00   0.00000000000000E+00   0.00000000000000E+00   0.00000000000000E+00   0.00000000000000E+00
     -5.60351214044760E-17   4.00000000000000E-02   4.00000000000000E-02   0.00000000000000E+00   0.00000000000000E+00
      1.42379244042592E-12   2.40773370748017E-15   1.42620017413340E-12   1.03600243374284E-17   2.60000000000000E-01
      2.60000000000000E-01   0.00000000000000E+00   0.00000000000000E+00   0.00000000000000E+00   0.00000000000000E+00
      0.00000000000000E+00   5.76258696504681E-17
      1.40000000000000E-01
      0.00000000000000E+00   0.00000000000000E+00   0.00000000000000E+00   0.00000000000000E+00  -1.49250463334082E-13
     -1.20928169650862E-12  -1.35853215984270E-12  -1.19944778961798E-17   5.60000000000000E-02   5.60000000000000E-02
      0.00000000000000E+00   0.00000000000000E+00   0.00000000000000E+00   0.00000000000000E+00   0.00000000000000E+00
     -5.48979661560794E-17   4.00000000000000E-02   4.00000000000000E-02   0.00000000000000E+00   0.00000000000000E+00
      1.35614292643055E-12   2.38923341215468E-15   1.35853215984270E-12   1.03152071187110E-17   2.60000000000000E-01
      2.60000000000000E-01   0.00000000000000E+00   0.00000000000000E+00   0.00000000000000E+00   0.00000000000000E+00
      0.00000000000000E+00   5.65772369335482E-17
      1.50000000000000E-01
      0.00000000000000E+00   0.00000000000000E+00   0.00000000000000E+00   0.00000000000000E+00  -1.50248557456615E-13
     -1.14621919258352E-12  -1.29646775004014E-12  -1.20381635173003E-17   6.00000000000000E-02   6.00000000000000E-02
      0.00000000000000E+00   0.00000000000000E+00   0.00000000000000E+00   0.00000000000000E+00   0.00000000000000E+00
     -5.37607987458702E-17   4.00000000000000E-02   4.00000000000000E-02   0.00000000000000E+00   0.00000000000000E+00
      1.29409701115620E-12   2.37073888394315E-15   1.29646775004014E-12   1.02703458705608E-17   2.60000000000000E-01
      2.60000000000000E-01   0.00000000000000E+00   0.00000000000000E+00   0.00000000000000E+00   0.00000000000000E+00
      0.00000000000000E+00   5.55286163926096E-17
      1.60000000000000E-01
      0.00000000000000E+00   0.00000000000000E+00   0.00000000000000E+00   0.00000000000000E+00  -1.51248507627030E-13
     -1.08819916745258E-12  -1.23944767507961E-12  -1.20818298371624E-17   6.40000000000000E-02   6.40000000000000E-02
      0.00000000000000E+00   0.00000000000000E+00   0.00000000000000E+00   0.00000000000000E+00   0.00000000000000E+00
     -5.26236184817093E-17   4.00000000000000E-02   4.00000000000000E-02   0.00000000000000E+00   0.00000000000000E+00
      1.23709542253713E-12   2.35225254246749E-15   1.23944767507960E-12   1.02254395990183E-17   2.60000000000000E-01
      2.60000000000000E-01   0.00000000000000E+00   0.00000000000000E+00   0.00000000000000E+00   0.00000000000000E+00
      0.00000000000000E+00   5.44800087198533E-17
      1.70000000000000E-01
      0.00000000000000E+00   0.00000000000000E+00   0.00000000000000E+00   0.00000000000000E+00  -1.52250297294410E-13
     -1.03472119874057E-12  -1.18697149603498E-12  -1.21254772374267E-17   6.80000000000000E-02   6.80000000000000E-02
      0.00000000000000E+00   0.00000000000000E+00   0.00000000000000E+00   0.00000000000000E+00   0.00000000000000E+00
     -5.14864246633657E-17   4.00000000000000E-02   4.00000000000000E-02   0.00000000000000E+00   0.00000000000000E+00
      1.18463771908512E-12   2.33377694985958E-15   1.18697149603498E-12   1.01804872852142E-17   2.60000000000000E-01
      2.60000000000000E-01   0.00000000000000E+00   0.00000000000000E+00   0.00000000000000E+00   0.00000000000000E+00
      0.00000000000000E+00   5.34314146155782E-17
      1.80000000000000E-01
      0.00000000000000E+00   0.00000000000000E+00   0.00000000000000E+00   0.00000000000000E+00  -1.53253909736669E-13
     -9.85338186609007E-13  -1.13859209634568E-12  -1.21691060912425E-17   7.20000000000000E-02   7.20000000000000E-02
      0.00000000000000E+00   0.00000000000000E+00   0.00000000000000E+00   0.00000000000000E+00   0.00000000000000E+00
     -5.03492165820442E-17   4.00000000000000E-02   4.00000000000000E-02   0.00000000000000E+00   0.00000000000000E+00
      1.13627678157903E-12   2.31531476664264E-15   1.13859209634567E-12   1.01354878846389E-17   2.60000000000000E-01
      2.60000000000000E-01   0.00000000000000E+00   0.00000000000000E+00   0.00000000000000E+00   0.00000000000000E+00
      0.00000000000000E+00   5.23828347886478E-17
      1.90000000000000E-01
      0.00000000000000E+00   0.00000000000000E+00   0.00000000000000E+00   0.00000000000000E+00  -1.54259328109333E-13
     -9.39651270940265E-13  -1.09391059904960E-12  -1.22127167634510E-17   7.60000000000000E-02   7.60000000000000E-02
      0.00000000000000E+00   0.00000000000000E+00   0.00000000000000E+00   0.00000000000000E+00   0.00000000000000E+00
     -4.92119935199031E-17   4.00000000000000E-02   4.00000000000000E-02   0.00000000000000E+00   0.00000000000000E+00
      1.09161373025147E-12   2.29686879813055E-15   1.09391059904960E-12   1.00904403263876E-17   2.60000000000000E-01
      2.60000000000000E-01   0.00000000000000E+00   0.00000000000000E+00   0.00000000000000E+00   0.00000000000000E+00
      0.00000000000000E+00   5.13342699569665E-17
      2.00000000000000E-01
      0.00000000000000E+00   0.00000000000000E+00   0.00000000000000E+00   0.00000000000000E+00  -1.55266535426094E-13
     -8.97305152583075E-13  -1.05257168800917E-12  -1.22563096107832E-17   8.00000000000000E-02   8.00000000000000E-02
      0.00000000000000E+00   0.00000000000000E+00   0.00000000000000E+00   0.00000000000000E+00   0.00000000000000E+00
     -4.80747547495621E-17   4.00000000000000E-02   4.00000000000000E-02   0.00000000000000E+00   0.00000000000000E+00
      1.05029324611743E-12   2.27844189173333E-15   1.05257168800917E-12   1.00453435123804E-17   2.60000000000000E-01
      2.60000000000000E-01   0.00000000000000E+00   0.00000000000000E+00   0.00000000000000E+00   0.00000000000000E+00
      0.00000000000000E+00   5.02857208479649E-17
      2.10000000000000E-01
      0.00000000000000E+00   0.00000000000000E+00   0.00000000000000E+00   0.00000000000000E+00  -1.56275514644860E-13
     -8.57983797965411E-13  -1.01425931261027E-12  -1.22998849820533E-17   8.40000000000000E-02   8.40000000000000E-02
      0.00000000000000E+00   0.00000000000000E+00   0.00000000000000E+00   0.00000000000000E+00   0.00000000000000E+00
     -4.69374995335989E-17   4.00000000000000E-02   4.00000000000000E-02   0.00000000000000E+00   0.00000000000000E+00
      1.01199927563092E-12   2.26003697934606E-15   1.01425931261027E-12   1.00001963165558E-17   2.60000000000000E-01
      2.60000000000000E-01   0.00000000000000E+00   0.00000000000000E+00   0.00000000000000E+00   0.00000000000000E+00
      0.00000000000000E+00   4.92371881990964E-17
      2.20000000000000E-01
      0.00000000000000E+00   0.00000000000000E+00   0.00000000000000E+00   0.00000000000000E+00  -1.57286248654839E-13
     -8.21406506199856E-13  -9.78692754854695E-13  -1.23434432183472E-17   8.80000000000000E-02   8.80000000000000E-02
      0.00000000000000E+00   0.00000000000000E+00   0.00000000000000E+00   0.00000000000000E+00   0.00000000000000E+00
     -4.58002271240341E-17   4.00000000000000E-02   4.00000000000000E-02   0.00000000000000E+00   0.00000000000000E+00
      9.76451097832867E-13   2.24165702182793E-15   9.78692754854694E-13   9.95499758403632E-18   2.60000000000000E-01
      2.60000000000000E-01   0.00000000000000E+00   0.00000000000000E+00   0.00000000000000E+00   0.00000000000000E+00
      0.00000000000000E+00   4.81886727583450E-17
      2.30000000000000E-01
      0.00000000000000E+00   0.00000000000000E+00   0.00000000000000E+00   0.00000000000000E+00  -1.58298720342891E-13
     -7.87324318617592E-13  -9.45623038960483E-13  -1.23869846532058E-17   9.20000000000000E-02   9.20000000000000E-02
      0.00000000000000E+00   0.00000000000000E+00   0.00000000000000E+00   0.00000000000000E+00   0.00000000000000E+00
     -4.46629367618030E-17   4.00000000000000E-02   4.00000000000000E-02   0.00000000000000E+00   0.00000000000000E+00
      9.43399733954156E-13   2.22330500632590E-15   9.45623038960482E-13   9.90974613026425E-18   2.60000000000000E-01
      2.60000000000000E-01   0.00000000000000E+00   0.00000000000000E+00   0.00000000000000E+00   0.00000000000000E+00
      0.00000000000000E+00   4.71401752847445E-17
      2.40000000000000E-01
      0.00000000000000E+00   0.00000000000000E+00   0.00000000000000E+00   0.00000000000000E+00  -1.59312912529500E-13
     -7.55516750909916E-13  -9.14829663439416E-13  -1.24305096128039E-17   9.60000000000000E-02   9.60000000000000E-02
      0.00000000000000E+00   0.00000000000000E+00   0.00000000000000E+00   0.00000000000000E+00   0.00000000000000E+00
     -4.35256276762143E-17   4.00000000000000E-02   4.00000000000000E-02   0.00000000000000E+00   0.00000000000000E+00
      9.12624679528150E-13   2.20498391126571E-15   9.14829663439416E-13   9.86444074010678E-18   2.60000000000000E-01
      2.60000000000000E-01   0.00000000000000E+00   0.00000000000000E+00   0.00000000000000E+00   0.00000000000000E+00
      0.00000000000000E+00   4.60916965489114E-17
      2.50000000000000E-01
      0.00000000000000E+00   0.00000000000000E+00   0.00000000000000E+00   0.00000000000000E+00  -1.60328808091533E-13
     -7.25788828749839E-13  -8.86117636841372E-13  -1.24740184161251E-17   1.00000000000000E-01   1.00000000000000E-01
      0.00000000000000E+00   0.00000000000000E+00   0.00000000000000E+00   0.00000000000000E+00   0.00000000000000E+00
     -4.23882990843937E-17   4.00000000000000E-02   4.00000000000000E-02   0.00000000000000E+00   0.00000000000000E+00
      8.83930940131320E-13   2.18669671005209E-15   8.86117636841372E-13   9.81908016692780E-18   2.60000000000000E-01
      2.60000000000000E-01   0.00000000000000E+00   0.00000000000000E+00   0.00000000000000E+00   0.00000000000000E+00
      0.00000000000000E+00   4.50432373335909E-17
      2.60000000000000E-01
      0.00000000000000E+00   0.00000000000000E+00   0.00000000000000E+00   0.00000000000000E+00  -1.61346389928676E-13
     -6.97968408210620E-13  -8.59314798139296E-13  -1.25175113751316E-17   1.04000000000000E-01   1.04000000000000E-01
      0.00000000000000E+00   0.00000000000000E+00   0.00000000000000E+00   0.00000000000000E+00   0.00000000000000E+00
     -4.12509501907121E-17   4.00000000000000E-02   4.00000000000000E-02   0.00000000000000E+00   0.00000000000000E+00
      8.57146351805253E-13   2.16844633404229E-15   8.59314798139296E-13   9.77366313162520E-18   2.60000000000000E-01
      2.60000000000000E-01   0.00000000000000E+00   0.00000000000000E+00   0.00000000000000E+00   0.00000000000000E+00
      0.00000000000000E+00   4.39947984342185E-17
      2.70000000000000E-01
      0.00000000000000E+00   0.00000000000000E+00   0.00000000000000E+00   0.00000000000000E+00  -1.62365640947345E-13
     -6.71903763100948E-13  -8.34269404048293E-13  -1.25609887949299E-17   1.08000000000000E-01   1.08000000000000E-01
      0.00000000000000E+00   0.00000000000000E+00   0.00000000000000E+00   0.00000000000000E+00   0.00000000000000E+00
     -4.01135801861973E-17   4.00000000000000E-02   4.00000000000000E-02   0.00000000000000E+00   0.00000000000000E+00
      8.32119168379407E-13   2.15023566888609E-15   8.34269404048293E-13   9.72818832163151E-18   2.60000000000000E-01
      2.60000000000000E-01   0.00000000000000E+00   0.00000000000000E+00   0.00000000000000E+00   0.00000000000000E+00
      0.00000000000000E+00   4.29463806594957E-17
      2.80000000000000E-01
      0.00000000000000E+00   0.00000000000000E+00   0.00000000000000E+00   0.00000000000000E+00  -1.63386544147978E-13
     -6.47461421917722E-13  -8.10847966065700E-13  -1.26044509739324E-17   1.12000000000000E-01   1.12000000000000E-01
      0.00000000000000E+00   0.00000000000000E+00   0.00000000000000E+00   0.00000000000000E+00   0.00000000000000E+00
     -3.89761882479271E-17   4.00000000000000E-02   4.00000000000000E-02   0.00000000000000E+00   0.00000000000000E+00
      8.08715898527272E-13   2.13206753842685E-15   8.10847966065699E-13   9.68265438987578E-18   2.60000000000000E-01
      2.60000000000000E-01   0.00000000000000E+00   0.00000000000000E+00   0.00000000000000E+00   0.00000000000000E+00
      0.00000000000000E+00   4.18979848319838E-17
      2.90000000000000E-01
      0.00000000000000E+00   0.00000000000000E+00   0.00000000000000E+00   0.00000000000000E+00  -1.64409082602766E-13
     -6.24524237930040E-13  -7.88933320532806E-13  -1.26478982040150E-17   1.16000000000000E-01   1.16000000000000E-01
      0.00000000000000E+00   0.00000000000000E+00   0.00000000000000E+00   0.00000000000000E+00   0.00000000000000E+00
     -3.78387735384041E-17   4.00000000000000E-02   4.00000000000000E-02   0.00000000000000E+00   0.00000000000000E+00
      7.86819375839635E-13   2.11394469317078E-15   7.88933320532806E-13   9.63705995370446E-18   2.60000000000000E-01
      2.60000000000000E-01   0.00000000000000E+00   0.00000000000000E+00   0.00000000000000E+00   0.00000000000000E+00
      0.00000000000000E+00   4.08496117887146E-17
      3.00000000000000E-01
      0.00000000000000E+00   0.00000000000000E+00   0.00000000000000E+00   0.00000000000000E+00  -1.65433239403852E-13
     -6.02989676670067E-13  -7.68422916073919E-13  -1.26913307706700E-17   1.20000000000000E-01   1.20000000000000E-01
      0.00000000000000E+00   0.00000000000000E+00   0.00000000000000E+00   0.00000000000000E+00   0.00000000000000E+00
     -3.67013352049097E-17   4.00000000000000E-02   4.00000000000000E-02   0.00000000000000E+00   0.00000000000000E+00
      7.66327046286545E-13   2.09586978737412E-15   7.68422916073919E-13   9.59140359375901E-18   2.60000000000000E-01
      2.60000000000000E-01   0.00000000000000E+00   0.00000000000000E+00   0.00000000000000E+00   0.00000000000000E+00
      0.00000000000000E+00   3.98012623818207E-17
      3.10000000000000E-01
      0.00000000000000E+00   0.00000000000000E+00   0.00000000000000E+00   0.00000000000000E+00  -1.66458997780095E-13
     -5.82768306000937E-13  -7.49227303781032E-13  -1.27347489531561E-17   1.24000000000000E-01   1.24000000000000E-01
      0.00000000000000E+00   0.00000000000000E+00   0.00000000000000E+00   0.00000000000000E+00   0.00000000000000E+00
     -3.55638723788364E-17   4.00000000000000E-02   4.00000000000000E-02   0.00000000000000E+00   0.00000000000000E+00
      7.47149458393870E-13   2.07784538716085E-15   7.49227303781031E-13   9.54568385280753E-18   2.60000000000000E-01
      2.60000000000000E-01   0.00000000000000E+00   0.00000000000000E+00   0.00000000000000E+00   0.00000000000000E+00
      0.00000000000000E+00   3.87529374791849E-17
      3.20000000000000E-01
      0.00000000000000E+00   0.00000000000000E+00   0.00000000000000E+00   0.00000000000000E+00  -1.67486341019136E-13
     -5.63782474710929E-13  -7.31268815730065E-13  -1.27781530246437E-17   1.28000000000000E-01   1.28000000000000E-01
      0.00000000000000E+00   0.00000000000000E+00   0.00000000000000E+00   0.00000000000000E+00   0.00000000000000E+00
     -3.44263841749964E-17   4.00000000000000E-02   4.00000000000000E-02   0.00000000000000E+00   0.00000000000000E+00
      7.29208941772802E-13   2.05987395726207E-15   7.31268815730064E-13   9.49989923452784E-18   2.60000000000000E-01
      2.60000000000000E-01   0.00000000000000E+00   0.00000000000000E+00   0.00000000000000E+00   0.00000000000000E+00
      0.00000000000000E+00   3.77046379651122E-17
      3.30000000000000E-01
      0.00000000000000E+00   0.00000000000000E+00   0.00000000000000E+00   0.00000000000000E+00  -1.68515252589079E-13
     -5.45965166566590E-13  -7.14480419155670E-13  -1.28215432523567E-17   1.32000000000000E-01   1.32000000000000E-01
      0.00000000000000E+00   0.00000000000000E+00   0.00000000000000E+00   0.00000000000000E+00   0.00000000000000E+00
     -3.32888696909060E-17   4.00000000000000E-02   4.00000000000000E-02   0.00000000000000E+00   0.00000000000000E+00
      7.12438461304711E-13   2.04195785095894E-15   7.14480419155670E-13   9.45404820223891E-18   2.60000000000000E-01
      2.60000000000000E-01   0.00000000000000E+00   0.00000000000000E+00   0.00000000000000E+00   0.00000000000000E+00
      0.00000000000000E+00   3.66563647410238E-17
      3.40000000000000E-01
      0.00000000000000E+00   0.00000000000000E+00   0.00000000000000E+00   0.00000000000000E+00  -1.69545715991646E-13
     -5.29259017671895E-13  -6.98804733663541E-13  -1.28649198977109E-17   1.36000000000000E-01   1.36000000000000E-01
      0.00000000000000E+00   0.00000000000000E+00   0.00000000000000E+00   0.00000000000000E+00   0.00000000000000E+00
     -3.21513280060428E-17   4.00000000000000E-02   4.00000000000000E-02   0.00000000000000E+00   0.00000000000000E+00
      6.96780634356818E-13   2.02409930672269E-15   6.98804733663541E-13   9.40812917757772E-18   2.60000000000000E-01
      2.60000000000000E-01   0.00000000000000E+00   0.00000000000000E+00   0.00000000000000E+00   0.00000000000000E+00
      0.00000000000000E+00   3.56081187261760E-17
      3.50000000000000E-01
      0.00000000000000E+00   0.00000000000000E+00   0.00000000000000E+00   0.00000000000000E+00  -1.70577714853919E-13
     -5.13615485929302E-13  -6.84193200783221E-13  -1.29082832164483E-17   1.40000000000000E-01   1.40000000000000E-01
      0.00000000000000E+00   0.00000000000000E+00   0.00000000000000E+00   0.00000000000000E+00   0.00000000000000E+00
     -3.10137581810745E-17   4.00000000000000E-02   4.00000000000000E-02   0.00000000000000E+00   0.00000000000000E+00
      6.82186900338597E-13   2.00630044462439E-15   6.84193200783221E-13   9.36214053911790E-18   2.60000000000000E-01
      2.60000000000000E-01   0.00000000000000E+00   0.00000000000000E+00   0.00000000000000E+00   0.00000000000000E+00
      0.00000000000000E+00   3.45599008584049E-17
      3.60000000000000E-01
      0.00000000000000E+00   0.00000000000000E+00   0.00000000000000E+00   0.00000000000000E+00  -1.71611232986194E-13
     -4.98994162396741E-13  -6.70605395382935E-13  -1.29516334587681E-17   1.44000000000000E-01   1.44000000000000E-01
      0.00000000000000E+00   0.00000000000000E+00   0.00000000000000E+00   0.00000000000000E+00   0.00000000000000E+00
     -2.98761592570573E-17   4.00000000000000E-02   4.00000000000000E-02   0.00000000000000E+00   0.00000000000000E+00
      6.68616832108056E-13   1.98856327487807E-15   6.70605395382934E-13   9.31608062092676E-18   2.60000000000000E-01
      2.60000000000000E-01   0.00000000000000E+00   0.00000000000000E+00   0.00000000000000E+00   0.00000000000000E+00
      0.00000000000000E+00   3.35117120948987E-17
      3.70000000000000E-01
      0.00000000000000E+00   0.00000000000000E+00   0.00000000000000E+00   0.00000000000000E+00  -1.72646254207025E-13