DF-ISE text

Info {
  version   = 1.0
  type      = xyplot
  datasets  = [
    "time"
    "source OuterVoltage" "source InnerVoltage" "source QuasiFermiPotential" "source DisplacementCurrent" "source eCurrent"
    "source hCurrent" "source TotalCurrent" "source Charge" "topGate OuterVoltage" "topGate InnerVoltage"
    "topGate QuasiFermiPotential" "topGate DisplacementCurrent" "topGate eCurrent" "topGate hCurrent" "topGate TotalCurrent"
    "topGate Charge" "drain OuterVoltage" "drain InnerVoltage" "drain QuasiFermiPotential" "drain DisplacementCurrent"
    "drain eCurrent" "drain hCurrent" "drain TotalCurrent" "drain Charge" "bottomGate OuterVoltage"
    "bottomGate InnerVoltage" "bottomGate QuasiFermiPotential" "bottomGate DisplacementCurrent" "bottomGate eCurrent" "bottomGate hCurrent"
    "bottomGate TotalCurrent" "bottomGate Charge" ]
  functions = [
    Time
    OuterVoltage InnerVoltage QuasiFermiPotential DisplacementCurrent eCurrent
    hCurrent TotalCurrent Charge OuterVoltage InnerVoltage
    QuasiFermiPotential DisplacementCurrent eCurrent hCurrent TotalCurrent
    Charge OuterVoltage InnerVoltage QuasiFermiPotential DisplacementCurrent
    eCurrent hCurrent TotalCurrent Charge OuterVoltage
    InnerVoltage QuasiFermiPotential DisplacementCurrent eCurrent hCurrent
    TotalCurrent Charge ]
}

Data {
      1.00000000000000E-02
      0.00000000000000E+00   0.00000000000000E+00   0.00000000000000E+00   0.00000000000000E+00  -1.76384780657694E-13
     -3.42565963875718E-11  -3.44329811682294E-11  -1.15345912323357E-17   4.00000000000000E-03   4.00000000000000E-03
      0.00000000000000E+00   0.00000000000000E+00   0.00000000000000E+00   0.00000000000000E+00   0.00000000000000E+00
     -7.41520959794111E-17   2.10000000000000E-01   2.10000000000000E-01   0.00000000000000E+00   0.00000000000000E+00
      3.44273515415996E-11   5.62962662994660E-15   3.44329811682295E-11   1.44838677359318E-17   2.70000000000000E-01
      2.70000000000000E-01   0.00000000000000E+00   0.00000000000000E+00   0.00000000000000E+00   0.00000000000000E+00
      0.00000000000000E+00   7.12028194758150E-17
      2.00000000000000E-02
      0.00000000000000E+00   0.00000000000000E+00   0.00000000000000E+00   0.00000000000000E+00  -1.77626667247585E-13
     -3.13827925436469E-11  -3.15604192108945E-11  -1.15785048860565E-17   8.00000000000000E-03   8.00000000000000E-03
      0.00000000000000E+00   0.00000000000000E+00   0.00000000000000E+00   0.00000000000000E+00   0.00000000000000E+00
     -7.30157382033834E-17   2.10000000000000E-01   2.10000000000000E-01   0.00000000000000E+00   0.00000000000000E+00
      3.15548184526853E-11   5.60075820922923E-15   3.15604192108945E-11   1.44408541161892E-17   2.70000000000000E-01
      2.70000000000000E-01   0.00000000000000E+00   0.00000000000000E+00   0.00000000000000E+00   0.00000000000000E+00
      0.00000000000000E+00   7.01533889732507E-17
      3.00000000000000E-02
      0.00000000000000E+00   0.00000000000000E+00   0.00000000000000E+00   0.00000000000000E+00  -1.78871083522558E-13
     -2.87287441737562E-11  -2.89076152572787E-11  -1.16223946630793E-17   1.20000000000000E-02   1.20000000000000E-02
      0.00000000000000E+00   0.00000000000000E+00   0.00000000000000E+00   0.00000000000000E+00   0.00000000000000E+00
     -7.18793889619904E-17   2.10000000000000E-01   2.10000000000000E-01   0.00000000000000E+00   0.00000000000000E+00
      2.89020433443945E-11   5.57191288419303E-15   2.89076152572787E-11   1.43978336811071E-17   2.70000000000000E-01
      2.70000000000000E-01   0.00000000000000E+00   0.00000000000000E+00   0.00000000000000E+00   0.00000000000000E+00
      0.00000000000000E+00   6.91039499439626E-17
      4.00000000000000E-02
      0.00000000000000E+00   0.00000000000000E+00   0.00000000000000E+00   0.00000000000000E+00  -1.80118016574977E-13
     -2.62798263179545E-11  -2.64599443345295E-11  -1.16662610481493E-17   1.60000000000000E-02   1.60000000000000E-02
      0.00000000000000E+00   0.00000000000000E+00   0.00000000000000E+00   0.00000000000000E+00   0.00000000000000E+00
     -7.07430479501394E-17   2.10000000000000E-01   2.10000000000000E-01   0.00000000000000E+00   0.00000000000000E+00
      2.64544012432245E-11   5.54309130500059E-15   2.64599443345295E-11   1.43548063059021E-17   2.70000000000000E-01
      2.70000000000000E-01   0.00000000000000E+00   0.00000000000000E+00   0.00000000000000E+00   0.00000000000000E+00
      0.00000000000000E+00   6.80545026923866E-17
      5.00000000000000E-02
      0.00000000000000E+00   0.00000000000000E+00   0.00000000000000E+00   0.00000000000000E+00  -1.81367452285472E-13
     -2.40222178620787E-11  -2.42035853143642E-11  -1.17101045150304E-17   2.00000000000000E-02   2.00000000000000E-02
      0.00000000000000E+00   0.00000000000000E+00   0.00000000000000E+00   0.00000000000000E+00   0.00000000000000E+00
     -6.96067148672537E-17   2.10000000000000E-01   2.10000000000000E-01   0.00000000000000E+00   0.00000000000000E+00
      2.41980710202840E-11   5.51429408012972E-15   2.42035853143642E-11   1.43117718637874E-17   2.70000000000000E-01
      2.70000000000000E-01   0.00000000000000E+00   0.00000000000000E+00   0.00000000000000E+00   0.00000000000000E+00
      0.00000000000000E+00   6.70050475184966E-17
      6.00000000000000E-02
      0.00000000000000E+00   0.00000000000000E+00   0.00000000000000E+00   0.00000000000000E+00  -1.82619375457962E-13
     -2.19428683709132E-11  -2.21254877463712E-11  -1.17539255267699E-17   2.40000000000000E-02   2.40000000000000E-02
      0.00000000000000E+00   0.00000000000000E+00   0.00000000000000E+00   0.00000000000000E+00   0.00000000000000E+00
     -6.84703894170944E-17   2.10000000000000E-01   2.10000000000000E-01   0.00000000000000E+00   0.00000000000000E+00
      2.21200022245887E-11   5.48552178242704E-15   2.21254877463711E-11   1.42687302258857E-17   2.70000000000000E-01
      2.70000000000000E-01   0.00000000000000E+00   0.00000000000000E+00   0.00000000000000E+00   0.00000000000000E+00
      0.00000000000000E+00   6.59555847179786E-17
      7.00000000000000E-02
      0.00000000000000E+00   0.00000000000000E+00   0.00000000000000E+00   0.00000000000000E+00  -1.83873769942301E-13
     -2.00294657212361E-11  -2.02133394911784E-11  -1.17977245359563E-17   2.80000000000000E-02   2.80000000000000E-02
      0.00000000000000E+00   0.00000000000000E+00   0.00000000000000E+00   0.00000000000000E+00   0.00000000000000E+00
     -6.73340713075863E-17   2.10000000000000E-01   2.10000000000000E-01   0.00000000000000E+00   0.00000000000000E+00
      2.02078827162313E-11   5.45677494710474E-15   2.02133394911784E-11   1.42256812611425E-17   2.70000000000000E-01
      2.70000000000000E-01   0.00000000000000E+00   0.00000000000000E+00   0.00000000000000E+00   0.00000000000000E+00
      0.00000000000000E+00   6.49061145824001E-17
      8.00000000000000E-02
      0.00000000000000E+00   0.00000000000000E+00   0.00000000000000E+00   0.00000000000000E+00  -1.85130618745877E-13
     -1.82704045366999E-11  -1.84555351554458E-11  -1.18415019849716E-17   3.20000000000000E-02   3.20000000000000E-02
      0.00000000000000E+00   0.00000000000000E+00   0.00000000000000E+00   0.00000000000000E+00   0.00000000000000E+00
     -6.61977602506471E-17   2.10000000000000E-01   2.10000000000000E-01   0.00000000000000E+00   0.00000000000000E+00
      1.84501071013531E-11   5.42805409273147E-15   1.84555351554458E-11   1.41826248362408E-17   2.70000000000000E-01
      2.70000000000000E-01   0.00000000000000E+00   0.00000000000000E+00   0.00000000000000E+00   0.00000000000000E+00
      0.00000000000000E+00   6.38566373993778E-17
      9.00000000000000E-02
      0.00000000000000E+00   0.00000000000000E+00   0.00000000000000E+00   0.00000000000000E+00  -1.86389904134946E-13
     -1.66547554260996E-11  -1.68411453302346E-11  -1.18852583062368E-17   3.60000000000000E-02   3.60000000000000E-02
      0.00000000000000E+00   0.00000000000000E+00   0.00000000000000E+00   0.00000000000000E+00   0.00000000000000E+00
     -6.50614559620207E-17   2.10000000000000E-01   2.10000000000000E-01   0.00000000000000E+00   0.00000000000000E+00
      1.68357459705332E-11   5.39935970138062E-15   1.68411453302346E-11   1.41395608155168E-17   2.70000000000000E-01
      2.70000000000000E-01   0.00000000000000E+00   0.00000000000000E+00   0.00000000000000E+00   0.00000000000000E+00
      0.00000000000000E+00   6.28071534527407E-17
      1.00000000000000E-01
      0.00000000000000E+00   0.00000000000000E+00   0.00000000000000E+00   0.00000000000000E+00  -1.87651607726733E-13
     -1.51722350263475E-11  -1.53598866340742E-11  -1.19289939224515E-17   4.00000000000000E-02   4.00000000000000E-02
      0.00000000000000E+00   0.00000000000000E+00   0.00000000000000E+00   0.00000000000000E+00   0.00000000000000E+00
     -6.39251581611138E-17   2.10000000000000E-01   2.10000000000000E-01   0.00000000000000E+00   0.00000000000000E+00
      1.53545159418316E-11   5.37069224264379E-15   1.53598866340742E-11   1.40964890608752E-17   2.70000000000000E-01
      2.70000000000000E-01   0.00000000000000E+00   0.00000000000000E+00   0.00000000000000E+00   0.00000000000000E+00
      0.00000000000000E+00   6.17576630226902E-17
      1.10000000000000E-01
      0.00000000000000E+00   0.00000000000000E+00   0.00000000000000E+00   0.00000000000000E+00  -1.88915710573215E-13
     -1.38131768509004E-11  -1.40020925614736E-11  -1.19727092468278E-17   4.40000000000000E-02   4.40000000000000E-02
      0.00000000000000E+00   0.00000000000000E+00   0.00000000000000E+00   0.00000000000000E+00   0.00000000000000E+00
     -6.27888665708353E-17   2.10000000000000E-01   2.10000000000000E-01   0.00000000000000E+00   0.00000000000000E+00
      1.39967505093025E-11   5.34205217112292E-15   1.40020925614736E-11   1.40534094317050E-17   2.70000000000000E-01
      2.70000000000000E-01   0.00000000000000E+00   0.00000000000000E+00   0.00000000000000E+00   0.00000000000000E+00
      0.00000000000000E+00   6.07081663859581E-17
      1.20000000000000E-01
      0.00000000000000E+00   0.00000000000000E+00   0.00000000000000E+00   0.00000000000000E+00  -1.90182193236855E-13
     -1.25685029439608E-11  -1.27586851371976E-11  -1.20164046833183E-17   4.80000000000000E-02   4.80000000000000E-02
      0.00000000000000E+00   0.00000000000000E+00   0.00000000000000E+00   0.00000000000000E+00   0.00000000000000E+00
     -6.16525809174391E-17   2.10000000000000E-01   2.10000000000000E-01   0.00000000000000E+00   0.00000000000000E+00
      1.27533716973104E-11   5.31343988723988E-15   1.27586851371976E-11   1.40103217847966E-17   2.70000000000000E-01
      2.70000000000000E-01   0.00000000000000E+00   0.00000000000000E+00   0.00000000000000E+00   0.00000000000000E+00
      0.00000000000000E+00   5.96586638159608E-17
      1.30000000000000E-01
      0.00000000000000E+00   0.00000000000000E+00   0.00000000000000E+00   0.00000000000000E+00  -1.91451035859663E-13
     -1.14296963404348E-11  -1.16211473762945E-11  -1.20600806268383E-17   5.20000000000000E-02   5.20000000000000E-02
      0.00000000000000E+00   0.00000000000000E+00   0.00000000000000E+00   0.00000000000000E+00   0.00000000000000E+00
     -6.05163009303697E-17   2.10000000000000E-01   2.10000000000000E-01   0.00000000000000E+00   0.00000000000000E+00
      1.16158625204659E-11   5.28485582855396E-15   1.16211473762945E-11   1.39672259742567E-17   2.70000000000000E-01
      2.70000000000000E-01   0.00000000000000E+00   0.00000000000000E+00   0.00000000000000E+00   0.00000000000000E+00
      0.00000000000000E+00   5.86091555829514E-17
      1.40000000000000E-01
      0.00000000000000E+00   0.00000000000000E+00   0.00000000000000E+00   0.00000000000000E+00  -1.92722218225673E-13
     -1.03887743305973E-11  -1.05814965488230E-11  -1.21037374634833E-17   5.60000000000000E-02   5.60000000000000E-02
      0.00000000000000E+00   0.00000000000000E+00   0.00000000000000E+00   0.00000000000000E+00   0.00000000000000E+00
     -5.93800263421108E-17   2.10000000000000E-01   2.10000000000000E-01   0.00000000000000E+00   0.00000000000000E+00
      1.05762402484369E-11   5.25630038607337E-15   1.05814965488230E-11   1.39241218514248E-17   2.70000000000000E-01
      2.70000000000000E-01   0.00000000000000E+00   0.00000000000000E+00   0.00000000000000E+00   0.00000000000000E+00
      0.00000000000000E+00   5.75596419541693E-17
      1.50000000000000E-01
      0.00000000000000E+00   0.00000000000000E+00   0.00000000000000E+00   0.00000000000000E+00  -1.93995719817575E-13
     -9.43826252841965E-12  -9.63225824823722E-12  -1.21473755707398E-17   6.00000000000000E-02   6.00000000000000E-02
      0.00000000000000E+00   0.00000000000000E+00   0.00000000000000E+00   0.00000000000000E+00   0.00000000000000E+00
     -5.82437568880357E-17   2.10000000000000E-01   2.10000000000000E-01   0.00000000000000E+00   0.00000000000000E+00
      9.62703047429637E-12   5.22777394085004E-15   9.63225824823722E-12   1.38810092647884E-17   2.70000000000000E-01
      2.70000000000000E-01   0.00000000000000E+00   0.00000000000000E+00   0.00000000000000E+00   0.00000000000000E+00
      0.00000000000000E+00   5.65101231939872E-17
      1.60000000000000E-01
      0.00000000000000E+00   0.00000000000000E+00   0.00000000000000E+00   0.00000000000000E+00  -1.95271519868139E-13
     -8.57116974144344E-12  -8.76644126131158E-12  -1.21909953176925E-17   6.40000000000000E-02   6.40000000000000E-02
      0.00000000000000E+00   0.00000000000000E+00   0.00000000000000E+00   0.00000000000000E+00   0.00000000000000E+00
     -5.71074923062608E-17   2.10000000000000E-01   2.10000000000000E-01   0.00000000000000E+00   0.00000000000000E+00
      8.76124198444665E-12   5.19927686492985E-15   8.76644126131158E-12   1.38378880598978E-17   2.70000000000000E-01
      2.70000000000000E-01   0.00000000000000E+00   0.00000000000000E+00   0.00000000000000E+00   0.00000000000000E+00
      0.00000000000000E+00   5.54605995640556E-17
      1.70000000000000E-01
      0.00000000000000E+00   0.00000000000000E+00   0.00000000000000E+00   0.00000000000000E+00  -1.96549597406632E-13
     -7.78096363963615E-12  -7.97751323704278E-12  -1.22345970652249E-17   6.80000000000000E-02   6.80000000000000E-02
      0.00000000000000E+00   0.00000000000000E+00   0.00000000000000E+00   0.00000000000000E+00   0.00000000000000E+00
     -5.59712323375014E-17   2.10000000000000E-01   2.10000000000000E-01   0.00000000000000E+00   0.00000000000000E+00
      7.97234242750782E-12   5.17080953496547E-15   7.97751323704279E-12   1.37947580792803E-17   2.70000000000000E-01
      2.70000000000000E-01   0.00000000000000E+00   0.00000000000000E+00   0.00000000000000E+00   0.00000000000000E+00
      0.00000000000000E+00   5.44110713234460E-17
      1.80000000000000E-01
      0.00000000000000E+00   0.00000000000000E+00   0.00000000000000E+00   0.00000000000000E+00  -1.97829931300995E-13
     -7.06154721989466E-12  -7.25937715119566E-12  -1.22781811662160E-17   7.20000000000000E-02   7.20000000000000E-02
      0.00000000000000E+00   0.00000000000000E+00   0.00000000000000E+00   0.00000000000000E+00   0.00000000000000E+00
     -5.48349767249288E-17   2.10000000000000E-01   2.10000000000000E-01   0.00000000000000E+00   0.00000000000000E+00
      7.25423477888790E-12   5.14237230777348E-15   7.25937715119567E-12   1.37516191623536E-17   2.70000000000000E-01
      2.70000000000000E-01   0.00000000000000E+00   0.00000000000000E+00   0.00000000000000E+00   0.00000000000000E+00
      0.00000000000000E+00   5.33615387287911E-17
      1.90000000000000E-01
      0.00000000000000E+00   0.00000000000000E+00   0.00000000000000E+00   0.00000000000000E+00  -1.99112500295819E-13
     -6.40723606230214E-12  -6.60634856259796E-12  -1.23217479657315E-17   7.60000000000000E-02   7.60000000000000E-02
      0.00000000000000E+00   0.00000000000000E+00   0.00000000000000E+00   0.00000000000000E+00   0.00000000000000E+00
     -5.36987252140308E-17   2.10000000000000E-01   2.10000000000000E-01   0.00000000000000E+00   0.00000000000000E+00
      6.60123459706487E-12   5.11396553309120E-15   6.60634856259797E-12   1.37084711453381E-17   2.70000000000000E-01
      2.70000000000000E-01   0.00000000000000E+00   0.00000000000000E+00   0.00000000000000E+00   0.00000000000000E+00
      0.00000000000000E+00   5.23120020344243E-17
      2.00000000000000E-01
      0.00000000000000E+00   0.00000000000000E+00   0.00000000000000E+00   0.00000000000000E+00  -2.00397283046797E-13
     -5.81273637343082E-12  -6.01313365647762E-12  -1.23652978012110E-17   8.00000000000000E-02   8.00000000000000E-02
      0.00000000000000E+00   0.00000000000000E+00   0.00000000000000E+00   0.00000000000000E+00   0.00000000000000E+00
     -5.25624775524729E-17   2.10000000000000E-01   2.10000000000000E-01   0.00000000000000E+00   0.00000000000000E+00
      6.00804806690798E-12   5.08558956965066E-15   6.01313365647763E-12   1.36653138611682E-17   2.70000000000000E-01
      2.70000000000000E-01   0.00000000000000E+00   0.00000000000000E+00   0.00000000000000E+00   0.00000000000000E+00
      0.00000000000000E+00   5.12624614925156E-17
      2.10000000000000E-01
      0.00000000000000E+00   0.00000000000000E+00   0.00000000000000E+00   0.00000000000000E+00  -2.01684258151855E-13
     -5.27312381127199E-12  -5.47480806942384E-12  -1.24088310026492E-17   8.40000000000000E-02   8.40000000000000E-02
      0.00000000000000E+00   0.00000000000000E+00   0.00000000000000E+00   0.00000000000000E+00   0.00000000000000E+00
     -5.14262334899616E-17   2.10000000000000E-01   2.10000000000000E-01   0.00000000000000E+00   0.00000000000000E+00
      5.46975082465680E-12   5.05724476704787E-15   5.47480806942385E-12   1.36221471394027E-17   2.70000000000000E-01
      2.70000000000000E-01   0.00000000000000E+00   0.00000000000000E+00   0.00000000000000E+00   0.00000000000000E+00
      0.00000000000000E+00   5.02129173532081E-17
      2.20000000000000E-01
      0.00000000000000E+00   0.00000000000000E+00   0.00000000000000E+00   0.00000000000000E+00  -2.02973404179057E-13
     -4.78382308575526E-12  -4.98679648993432E-12  -1.24523478927745E-17   8.80000000000000E-02   8.80000000000000E-02
      0.00000000000000E+00   0.00000000000000E+00   0.00000000000000E+00   0.00000000000000E+00   0.00000000000000E+00
     -5.02899927781098E-17   2.10000000000000E-01   2.10000000000000E-01   0.00000000000000E+00   0.00000000000000E+00
      4.98176755846135E-12   5.02893147297387E-15   4.98679648993432E-12   1.35789708061332E-17   2.70000000000000E-01
      2.70000000000000E-01   0.00000000000000E+00   0.00000000000000E+00   0.00000000000000E+00   0.00000000000000E+00
      0.00000000000000E+00   4.91633698647511E-17
      2.30000000000000E-01
      0.00000000000000E+00   0.00000000000000E+00   0.00000000000000E+00   0.00000000000000E+00  -2.04264699691937E-13
     -4.34058832802186E-12  -4.54485302771380E-12  -1.24958487872216E-17   9.20000000000000E-02   9.20000000000000E-02
      0.00000000000000E+00   0.00000000000000E+00   0.00000000000000E+00   0.00000000000000E+00   0.00000000000000E+00
     -4.91537551703029E-17   2.10000000000000E-01   2.10000000000000E-01   0.00000000000000E+00   0.00000000000000E+00
      4.53985237767290E-12   5.00065004090327E-15   4.54485302771380E-12   1.35357846838918E-17   2.70000000000000E-01
      2.70000000000000E-01   0.00000000000000E+00   0.00000000000000E+00   0.00000000000000E+00   0.00000000000000E+00
      0.00000000000000E+00   4.81138192736327E-17
      2.40000000000000E-01
      0.00000000000000E+00   0.00000000000000E+00   0.00000000000000E+00   0.00000000000000E+00  -2.05558123272230E-13
     -3.93948422091208E-12  -4.14504234418431E-12  -1.25393339947003E-17   9.60000000000000E-02   9.60000000000000E-02
      0.00000000000000E+00   0.00000000000000E+00   0.00000000000000E+00   0.00000000000000E+00   0.00000000000000E+00
     -4.80175204215675E-17   2.10000000000000E-01   2.10000000000000E-01   0.00000000000000E+00   0.00000000000000E+00
      4.14006994336423E-12   4.97240082007007E-15   4.14504234418430E-12   1.34925885915570E-17   2.70000000000000E-01
      2.70000000000000E-01   0.00000000000000E+00   0.00000000000000E+00   0.00000000000000E+00   0.00000000000000E+00
      0.00000000000000E+00   4.70642658247107E-17
      2.50000000000000E-01
      0.00000000000000E+00   0.00000000000000E+00   0.00000000000000E+00   0.00000000000000E+00  -2.06853653540327E-13
     -3.57686788248627E-12  -3.78372153602660E-12  -1.25828038171607E-17   1.00000000000000E-01   1.00000000000000E-01
      0.00000000000000E+00   0.00000000000000E+00   0.00000000000000E+00   0.00000000000000E+00   0.00000000000000E+00
     -4.68812882884399E-17   2.10000000000000E-01   2.10000000000000E-01   0.00000000000000E+00   0.00000000000000E+00
      3.77877735185680E-12   4.94418416979888E-15   3.78372153602660E-12   1.34493823442580E-17   2.70000000000000E-01
      2.70000000000000E-01   0.00000000000000E+00   0.00000000000000E+00   0.00000000000000E+00   0.00000000000000E+00
      0.00000000000000E+00   4.60147097613425E-17
      2.60000000000000E-01
      0.00000000000000E+00   0.00000000000000E+00   0.00000000000000E+00   0.00000000000000E+00  -2.08151269173600E-13
     -3.24937149362166E-12  -3.45752276279526E-12  -1.26262585499535E-17   1.04000000000000E-01   1.04000000000000E-01
      0.00000000000000E+00   0.00000000000000E+00   0.00000000000000E+00   0.00000000000000E+00   0.00000000000000E+00
     -4.57450585288372E-17   2.10000000000000E-01   2.10000000000000E-01   0.00000000000000E+00   0.00000000000000E+00
      3.45260676234413E-12   4.91600045112599E-15   3.45752276279526E-12   1.34061657532768E-17   2.70000000000000E-01
      2.70000000000000E-01   0.00000000000000E+00   0.00000000000000E+00   0.00000000000000E+00   0.00000000000000E+00
      0.00000000000000E+00   4.49651513255138E-17
      2.70000000000000E-01
      0.00000000000000E+00   0.00000000000000E+00   0.00000000000000E+00   0.00000000000000E+00  -2.09450948922931E-13
     -2.95388566013105E-12  -3.16333660905398E-12  -1.26696984819866E-17   1.08000000000000E-01   1.08000000000000E-01
      0.00000000000000E+00   0.00000000000000E+00   0.00000000000000E+00   0.00000000000000E+00   0.00000000000000E+00
     -4.46088309019288E-17   2.10000000000000E-01   2.10000000000000E-01   0.00000000000000E+00   0.00000000000000E+00
      3.15844875902930E-12   4.88785002467973E-15   3.16333660905398E-12   1.33629386259495E-17   2.70000000000000E-01
      2.70000000000000E-01   0.00000000000000E+00   0.00000000000000E+00   0.00000000000000E+00   0.00000000000000E+00
      0.00000000000000E+00   4.39155907579660E-17
      2.80000000000000E-01
      0.00000000000000E+00   0.00000000000000E+00   0.00000000000000E+00   0.00000000000000E+00  -2.10752671627407E-13
     -2.68754349918646E-12  -2.89829617081387E-12  -1.27131238958783E-17   1.12000000000000E-01   1.12000000000000E-01
      0.00000000000000E+00   0.00000000000000E+00   0.00000000000000E+00   0.00000000000000E+00   0.00000000000000E+00
     -4.34726051680091E-17   2.10000000000000E-01   2.10000000000000E-01   0.00000000000000E+00   0.00000000000000E+00
      2.89343643754547E-12   4.85973326839772E-15   2.89829617081387E-12   1.33197007655646E-17   2.70000000000000E-01
      2.70000000000000E-01   0.00000000000000E+00   0.00000000000000E+00   0.00000000000000E+00   0.00000000000000E+00
      0.00000000000000E+00   4.28660282983228E-17
      2.90000000000000E-01
      0.00000000000000E+00   0.00000000000000E+00   0.00000000000000E+00   0.00000000000000E+00  -2.12056416227412E-13
     -2.44770543913933E-12  -2.65976185536675E-12  -1.27565350681055E-17   1.16000000000000E-01   1.16000000000000E-01
      0.00000000000000E+00   0.00000000000000E+00   0.00000000000000E+00   0.00000000000000E+00   0.00000000000000E+00
     -4.23363810883707E-17   2.10000000000000E-01   2.10000000000000E-01   0.00000000000000E+00   0.00000000000000E+00
      2.65493020480503E-12   4.83165056171462E-15   2.65976185536675E-12   1.32764519712598E-17   2.70000000000000E-01
      2.70000000000000E-01   0.00000000000000E+00   0.00000000000000E+00   0.00000000000000E+00   0.00000000000000E+00
      0.00000000000000E+00   4.18164641852164E-17
      3.00000000000000E-01
      0.00000000000000E+00   0.00000000000000E+00   0.00000000000000E+00   0.00000000000000E+00  -2.13362161776504E-13
     -2.23194472134383E-12  -2.44530688312034E-12  -1.27999322691500E-17   1.20000000000000E-01   1.20000000000000E-01
      0.00000000000000E+00   0.00000000000000E+00   0.00000000000000E+00   0.00000000000000E+00   0.00000000000000E+00
     -4.12001584251791E-17   2.10000000000000E-01   2.10000000000000E-01   0.00000000000000E+00   0.00000000000000E+00
      2.44050328083076E-12   4.80360228957810E-15   2.44530688312034E-12   1.32331920379168E-17   2.70000000000000E-01
      2.70000000000000E-01   0.00000000000000E+00   0.00000000000000E+00   0.00000000000000E+00   0.00000000000000E+00
      0.00000000000000E+00   4.07668986564122E-17
      3.10000000000000E-01
      0.00000000000000E+00   0.00000000000000E+00   0.00000000000000E+00   0.00000000000000E+00  -2.14669887451771E-13
     -2.03803359196231E-12  -2.25270347941408E-12  -1.28433157636391E-17   1.24000000000000E-01   1.24000000000000E-01
      0.00000000000000E+00   0.00000000000000E+00   0.00000000000000E+00   0.00000000000000E+00   0.00000000000000E+00
     -4.00639369413474E-17   2.10000000000000E-01   2.10000000000000E-01   0.00000000000000E+00   0.00000000000000E+00
      2.24792789056316E-12   4.77558885092111E-15   2.25270347941408E-12   1.31899207560534E-17   2.70000000000000E-01
      2.70000000000000E-01   0.00000000000000E+00   0.00000000000000E+00   0.00000000000000E+00   0.00000000000000E+00
      0.00000000000000E+00   3.97173319489331E-17
      3.20000000000000E-01
      0.00000000000000E+00   0.00000000000000E+00   0.00000000000000E+00   0.00000000000000E+00  -2.15979572562976E-13
     -1.86393017120681E-12  -2.07990974376979E-12  -1.28866858104847E-17   1.28000000000000E-01   1.28000000000000E-01
      0.00000000000000E+00   0.00000000000000E+00   0.00000000000000E+00   0.00000000000000E+00   0.00000000000000E+00
     -3.89277164004126E-17   2.10000000000000E-01   2.10000000000000E-01   0.00000000000000E+00   0.00000000000000E+00
      2.07516213311910E-12   4.74761065068556E-15   2.07990974376979E-12   1.31466379117136E-17   2.70000000000000E-01
      2.70000000000000E-01   0.00000000000000E+00   0.00000000000000E+00   0.00000000000000E+00   0.00000000000000E+00
      0.00000000000000E+00   3.86677642991837E-17
      3.30000000000000E-01
      0.00000000000000E+00   0.00000000000000E+00   0.00000000000000E+00   0.00000000000000E+00  -2.17291196560928E-13
     -1.70776598704512E-12  -1.92505718360605E-12  -1.29300426630175E-17   1.32000000000000E-01   1.32000000000000E-01
      0.00000000000000E+00   0.00000000000000E+00   0.00000000000000E+00   0.00000000000000E+00   0.00000000000000E+00
     -3.77914965664109E-17   2.10000000000000E-01   2.10000000000000E-01   0.00000000000000E+00   0.00000000000000E+00
      1.92033751549912E-12   4.71966810692685E-15   1.92505718360605E-12   1.31033432863549E-17   2.70000000000000E-01
      2.70000000000000E-01   0.00000000000000E+00   0.00000000000000E+00   0.00000000000000E+00   0.00000000000000E+00
      0.00000000000000E+00   3.76181959430735E-17
      3.40000000000000E-01
      0.00000000000000E+00   0.00000000000000E+00   0.00000000000000E+00   0.00000000000000E+00  -2.18604739044360E-13
     -1.56783415990779E-12  -1.78643889895215E-12  -1.29733865691185E-17   1.36000000000000E-01   1.36000000000000E-01
      0.00000000000000E+00   0.00000000000000E+00   0.00000000000000E+00   0.00000000000000E+00   0.00000000000000E+00
     -3.66552772037549E-17   2.10000000000000E-01   2.10000000000000E-01   0.00000000000000E+00   0.00000000000000E+00
      1.78174713730861E-12   4.69176164354187E-15   1.78643889895215E-12   1.30600366567340E-17   2.70000000000000E-01
      2.70000000000000E-01   0.00000000000000E+00   0.00000000000000E+00   0.00000000000000E+00   0.00000000000000E+00
      0.00000000000000E+00   3.65686271161395E-17
      3.50000000000000E-01
      0.00000000000000E+00   0.00000000000000E+00   0.00000000000000E+00   0.00000000000000E+00  -2.19920179766544E-13
     -1.44257822460788E-12  -1.66249840437442E-12  -1.30167177713475E-17   1.40000000000000E-01   1.40000000000000E-01
      0.00000000000000E+00   0.00000000000000E+00   0.00000000000000E+00   0.00000000000000E+00   0.00000000000000E+00
     -3.55190580771104E-17   2.10000000000000E-01   2.10000000000000E-01   0.00000000000000E+00   0.00000000000000E+00
      1.65783451267718E-12   4.66389169724370E-15   1.66249840437442E-12   1.30167177947884E-17   2.70000000000000E-01
      2.70000000000000E-01   0.00000000000000E+00   0.00000000000000E+00   0.00000000000000E+00   0.00000000000000E+00
      0.00000000000000E+00   3.55190580536695E-17
      3.60000000000000E-01
      0.00000000000000E+00   0.00000000000000E+00   0.00000000000000E+00   0.00000000000000E+00  -2.21237498640431E-13
     -1.33058157530438E-12  -1.55181907394481E-12  -1.30600365070675E-17   1.44000000000000E-01   1.44000000000000E-01
      0.00000000000000E+00   0.00000000000000E+00   0.00000000000000E+00   0.00000000000000E+00   0.00000000000000E+00
     -3.43828389512731E-17   2.10000000000000E-01   2.10000000000000E-01   0.00000000000000E+00   0.00000000000000E+00
      1.54718301522893E-12   4.63605871588040E-15   1.55181907394481E-12   1.29733864675169E-17   2.70000000000000E-01
      2.70000000000000E-01   0.00000000000000E+00   0.00000000000000E+00   0.00000000000000E+00   0.00000000000000E+00
      0.00000000000000E+00   3.44694889908238E-17
      3.70000000000000E-01
      0.00000000000000E+00   0.00000000000000E+00   0.00000000000000E+00   0.00000000000000E+00  -2.22556675743775E-13