DF-ISE text

Info {
  version   = 1.0
  type      = xyplot
  datasets  = [
    "time"
    "source OuterVoltage" "source InnerVoltage" "source QuasiFermiPotential" "source DisplacementCurrent" "source eCurrent"
    "source hCurrent" "source TotalCurrent" "source Charge" "topGate OuterVoltage" "topGate InnerVoltage"
    "topGate QuasiFermiPotential" "topGate DisplacementCurrent" "topGate eCurrent" "topGate hCurrent" "topGate TotalCurrent"
    "topGate Charge" "drain OuterVoltage" "drain InnerVoltage" "drain QuasiFermiPotential" "drain DisplacementCurrent"
    "drain eCurrent" "drain hCurrent" "drain TotalCurrent" "drain Charge" "bottomGate OuterVoltage"
    "bottomGate InnerVoltage" "bottomGate QuasiFermiPotential" "bottomGate DisplacementCurrent" "bottomGate eCurrent" "bottomGate hCurrent"
    "bottomGate TotalCurrent" "bottomGate Charge" ]
  functions = [
    Time
    OuterVoltage InnerVoltage QuasiFermiPotential DisplacementCurrent eCurrent
    hCurrent TotalCurrent Charge OuterVoltage InnerVoltage
    QuasiFermiPotential DisplacementCurrent eCurrent hCurrent TotalCurrent
    Charge OuterVoltage InnerVoltage QuasiFermiPotential DisplacementCurrent
    eCurrent hCurrent TotalCurrent Charge OuterVoltage
    InnerVoltage QuasiFermiPotential DisplacementCurrent eCurrent hCurrent
    TotalCurrent Charge ]
}

Data {
      1.00000000000000E-02
      0.00000000000000E+00   0.00000000000000E+00   0.00000000000000E+00   0.00000000000000E+00  -1.92112963303919E-13
     -1.49233618952892E-10  -1.49425731916196E-10  -1.20819487644996E-17   4.00000000000000E-03   4.00000000000000E-03
      0.00000000000000E+00   0.00000000000000E+00   0.00000000000000E+00   0.00000000000000E+00   0.00000000000000E+00
     -8.81298841089373E-17   2.90000000000000E-01   2.90000000000000E-01   0.00000000000000E+00   0.00000000000000E+00
      1.49419300183267E-10   6.43173292934565E-15   1.49425731916196E-10   1.56644493629100E-17   3.20000000000000E-01
      3.20000000000000E-01   0.00000000000000E+00   0.00000000000000E+00   0.00000000000000E+00   0.00000000000000E+00
      0.00000000000000E+00   8.45473835105269E-17
      2.00000000000000E-02
      0.00000000000000E+00   0.00000000000000E+00   0.00000000000000E+00   0.00000000000000E+00  -1.93388176915991E-13
     -1.38821754934830E-10  -1.39015143111746E-10  -1.21255961958568E-17   8.00000000000000E-03   8.00000000000000E-03
      0.00000000000000E+00   0.00000000000000E+00   0.00000000000000E+00   0.00000000000000E+00   0.00000000000000E+00
     -8.69937348701222E-17   2.90000000000000E-01   2.90000000000000E-01   0.00000000000000E+00   0.00000000000000E+00
      1.39008740331813E-10   6.40277993334280E-15   1.39015143111746E-10   1.56215865787266E-17   3.20000000000000E-01
      3.20000000000000E-01   0.00000000000000E+00   0.00000000000000E+00   0.00000000000000E+00   0.00000000000000E+00
      0.00000000000000E+00   8.34977444872524E-17
      3.00000000000000E-02
      0.00000000000000E+00   0.00000000000000E+00   0.00000000000000E+00   0.00000000000000E+00  -1.94665482474438E-13
     -1.29061825869809E-10  -1.29256491352283E-10  -1.21692250827000E-17   1.20000000000000E-02   1.20000000000000E-02
      0.00000000000000E+00   0.00000000000000E+00   0.00000000000000E+00   0.00000000000000E+00   0.00000000000000E+00
     -8.58575927421549E-17   2.90000000000000E-01   2.90000000000000E-01   0.00000000000000E+00   0.00000000000000E+00
      1.29250117556891E-10   6.37379539222349E-15   1.29256491352283E-10   1.55787194657394E-17   3.20000000000000E-01
      3.20000000000000E-01   0.00000000000000E+00   0.00000000000000E+00   0.00000000000000E+00   0.00000000000000E+00
      0.00000000000000E+00   8.24480983591155E-17
      4.00000000000000E-02
      0.00000000000000E+00   0.00000000000000E+00   0.00000000000000E+00   0.00000000000000E+00  -1.95944877863813E-13
     -1.19918978351068E-10  -1.20114923228932E-10  -1.22128357900500E-17   1.60000000000000E-02   1.60000000000000E-02
      0.00000000000000E+00   0.00000000000000E+00   0.00000000000000E+00   0.00000000000000E+00   0.00000000000000E+00
     -8.47214575056671E-17   2.90000000000000E-01   2.90000000000000E-01   0.00000000000000E+00   0.00000000000000E+00
      1.20108578445270E-10   6.34478366219802E-15   1.20114923228932E-10   1.55358479506786E-17   3.20000000000000E-01
      3.20000000000000E-01   0.00000000000000E+00   0.00000000000000E+00   0.00000000000000E+00   0.00000000000000E+00
      0.00000000000000E+00   8.13984453450384E-17
      5.00000000000000E-02
      0.00000000000000E+00   0.00000000000000E+00   0.00000000000000E+00   0.00000000000000E+00  -1.97226359184966E-13
     -1.11359853802181E-10  -1.11557080161366E-10  -1.22564286748222E-17   2.00000000000000E-02   2.00000000000000E-02
      0.00000000000000E+00   0.00000000000000E+00   0.00000000000000E+00   0.00000000000000E+00   0.00000000000000E+00
     -8.35853289448079E-17   2.90000000000000E-01   2.90000000000000E-01   0.00000000000000E+00   0.00000000000000E+00
      1.11550764412616E-10   6.31574874987819E-15   1.11557080161366E-10   1.54929719591725E-17   3.20000000000000E-01
      3.20000000000000E-01   0.00000000000000E+00   0.00000000000000E+00   0.00000000000000E+00   0.00000000000000E+00
      0.00000000000000E+00   8.03487856604576E-17
      6.00000000000000E-02
      0.00000000000000E+00   0.00000000000000E+00   0.00000000000000E+00   0.00000000000000E+00  -1.98509920930354E-13
     -1.03352542814223E-10  -1.03551052735154E-10  -1.23000040860204E-17   2.40000000000000E-02   2.40000000000000E-02
      0.00000000000000E+00   0.00000000000000E+00   0.00000000000000E+00   0.00000000000000E+00   0.00000000000000E+00
     -8.24492068471246E-17   2.90000000000000E-01   2.90000000000000E-01   0.00000000000000E+00   0.00000000000000E+00
      1.03544766040764E-10   6.28669438976707E-15   1.03551052735154E-10   1.54500914157031E-17   3.20000000000000E-01
      3.20000000000000E-01   0.00000000000000E+00   0.00000000000000E+00   0.00000000000000E+00   0.00000000000000E+00
      0.00000000000000E+00   7.92991195174419E-17
      7.00000000000000E-02
      0.00000000000000E+00   0.00000000000000E+00   0.00000000000000E+00   0.00000000000000E+00  -1.99795556144124E-13
     -9.58665402109149E-11  -9.60663357670591E-11  -1.23435623649264E-17   2.80000000000000E-02   2.80000000000000E-02
      0.00000000000000E+00   0.00000000000000E+00   0.00000000000000E+00   0.00000000000000E+00   0.00000000000000E+00
     -8.13130910034442E-17   2.90000000000000E-01   2.90000000000000E-01   0.00000000000000E+00   0.00000000000000E+00
      9.60600781430556E-11   6.25762400350580E-15   9.60663357670591E-11   1.54072062435630E-17   3.20000000000000E-01
      3.20000000000000E-01   0.00000000000000E+00   0.00000000000000E+00   0.00000000000000E+00   0.00000000000000E+00
      0.00000000000000E+00   7.82494471248076E-17
      8.00000000000000E-02
      0.00000000000000E+00   0.00000000000000E+00   0.00000000000000E+00   0.00000000000000E+00  -2.01083256568171E-13
     -8.88727008391097E-11  -8.90737840956779E-11  -1.23871038452841E-17   3.20000000000000E-02   3.20000000000000E-02
      0.00000000000000E+00   0.00000000000000E+00   0.00000000000000E+00   0.00000000000000E+00   0.00000000000000E+00
     -8.01769812077594E-17   2.90000000000000E-01   2.90000000000000E-01   0.00000000000000E+00   0.00000000000000E+00
      8.90675555548900E-11   6.22854078792806E-15   8.90737840956779E-11   1.53643163648120E-17   3.20000000000000E-01
      3.20000000000000E-01   0.00000000000000E+00   0.00000000000000E+00   0.00000000000000E+00   0.00000000000000E+00
      0.00000000000000E+00   7.71997686882315E-17
      9.00000000000000E-02
      0.00000000000000E+00   0.00000000000000E+00   0.00000000000000E+00   0.00000000000000E+00  -2.02373012775699E-13
     -8.23431960830909E-11  -8.25455690958666E-11  -1.24306288534796E-17   3.60000000000000E-02   3.60000000000000E-02
      0.00000000000000E+00   0.00000000000000E+00   0.00000000000000E+00   0.00000000000000E+00   0.00000000000000E+00
     -7.90408772571155E-17   2.90000000000000E-01   2.90000000000000E-01   0.00000000000000E+00   0.00000000000000E+00
      8.25393696481815E-11   6.19944768524952E-15   8.25455690958667E-11   1.53214217002337E-17   3.20000000000000E-01
      3.20000000000000E-01   0.00000000000000E+00   0.00000000000000E+00   0.00000000000000E+00   0.00000000000000E+00
      0.00000000000000E+00   7.61500844103614E-17
      1.00000000000000E-01
      0.00000000000000E+00   0.00000000000000E+00   0.00000000000000E+00   0.00000000000000E+00  -2.03664814293273E-13
     -7.62514711028796E-11  -7.64551359171729E-11  -1.24741377087170E-17   4.00000000000000E-02   4.00000000000000E-02
      0.00000000000000E+00   0.00000000000000E+00   0.00000000000000E+00   0.00000000000000E+00   0.00000000000000E+00
     -7.79047789515007E-17   2.90000000000000E-01   2.90000000000000E-01   0.00000000000000E+00   0.00000000000000E+00
      7.64489655697474E-11   6.17034742545468E-15   7.64551359171729E-11   1.52785221692934E-17   3.20000000000000E-01
      3.20000000000000E-01   0.00000000000000E+00   0.00000000000000E+00   0.00000000000000E+00   0.00000000000000E+00
      0.00000000000000E+00   7.51003944909243E-17
      1.10000000000000E-01
      0.00000000000000E+00   0.00000000000000E+00   0.00000000000000E+00   0.00000000000000E+00  -2.04958649711957E-13
     -7.05722027975889E-11  -7.07771614473008E-11  -1.25176307231891E-17   4.40000000000000E-02   4.40000000000000E-02
      0.00000000000000E+00   0.00000000000000E+00   0.00000000000000E+00   0.00000000000000E+00   0.00000000000000E+00
     -7.67686860937385E-17   2.90000000000000E-01   2.90000000000000E-01   0.00000000000000E+00   0.00000000000000E+00
      7.07710202047573E-11   6.14124254353783E-15   7.07771614473009E-11   1.52356176900947E-17   3.20000000000000E-01
      3.20000000000000E-01   0.00000000000000E+00   0.00000000000000E+00   0.00000000000000E+00   0.00000000000000E+00
      0.00000000000000E+00   7.40506991268329E-17
      1.20000000000000E-01
      0.00000000000000E+00   0.00000000000000E+00   0.00000000000000E+00   0.00000000000000E+00  -2.06254506789024E-13
     -6.52812584959180E-11  -6.54875130027070E-11  -1.25611082022448E-17   4.80000000000000E-02   4.80000000000000E-02
      0.00000000000000E+00   0.00000000000000E+00   0.00000000000000E+00   0.00000000000000E+00   0.00000000000000E+00
     -7.56325984893818E-17   2.90000000000000E-01   2.90000000000000E-01   0.00000000000000E+00   0.00000000000000E+00
      6.54814008673228E-11   6.11213538420818E-15   6.54875130027070E-11   1.51927081793371E-17   3.20000000000000E-01
      3.20000000000000E-01   0.00000000000000E+00   0.00000000000000E+00   0.00000000000000E+00   0.00000000000000E+00
      0.00000000000000E+00   7.30009985122894E-17
      1.30000000000000E-01
      0.00000000000000E+00   0.00000000000000E+00   0.00000000000000E+00   0.00000000000000E+00  -2.07552372540904E-13
     -6.03556553766540E-11  -6.05632077491949E-11  -1.26045704445514E-17   5.20000000000000E-02   5.20000000000000E-02
      0.00000000000000E+00   0.00000000000000E+00   0.00000000000000E+00   0.00000000000000E+00   0.00000000000000E+00
     -7.44965159466096E-17   2.90000000000000E-01   2.90000000000000E-01   0.00000000000000E+00   0.00000000000000E+00
      6.05571247210597E-11   6.08302813526472E-15   6.05632077491949E-11   1.51497935522732E-17   3.20000000000000E-01
      3.20000000000000E-01   0.00000000000000E+00   0.00000000000000E+00   0.00000000000000E+00   0.00000000000000E+00
      0.00000000000000E+00   7.19512928388878E-17
      1.40000000000000E-01
      0.00000000000000E+00   0.00000000000000E+00   0.00000000000000E+00   0.00000000000000E+00  -2.08852233327176E-13
     -5.57735206225879E-11  -5.59823728559151E-11  -1.26480177422539E-17   5.60000000000000E-02   5.60000000000000E-02
      0.00000000000000E+00   0.00000000000000E+00   0.00000000000000E+00   0.00000000000000E+00   0.00000000000000E+00
     -7.33604382761255E-17   2.90000000000000E-01   2.90000000000000E-01   0.00000000000000E+00   0.00000000000000E+00
      5.59763189330923E-11   6.05392282291803E-15   5.59823728559152E-11   1.51068737226655E-17   3.20000000000000E-01
      3.20000000000000E-01   0.00000000000000E+00   0.00000000000000E+00   0.00000000000000E+00   0.00000000000000E+00
      0.00000000000000E+00   7.09015822957139E-17
      1.50000000000000E-01
      0.00000000000000E+00   0.00000000000000E+00   0.00000000000000E+00   0.00000000000000E+00  -2.10154074928281E-13
     -5.15140523118337E-11  -5.17242063867620E-11  -1.26914503811294E-17   6.00000000000000E-02   6.00000000000000E-02
      0.00000000000000E+00   0.00000000000000E+00   0.00000000000000E+00   0.00000000000000E+00   0.00000000000000E+00
     -7.22243652910581E-17   2.90000000000000E-01   2.90000000000000E-01   0.00000000000000E+00   0.00000000000000E+00
      5.17181815654398E-11   6.02482132211528E-15   5.17242063867620E-11   1.50639486027436E-17   3.20000000000000E-01
      3.20000000000000E-01   0.00000000000000E+00   0.00000000000000E+00   0.00000000000000E+00   0.00000000000000E+00
      0.00000000000000E+00   6.98518670694440E-17
      1.60000000000000E-01
      0.00000000000000E+00   0.00000000000000E+00   0.00000000000000E+00   0.00000000000000E+00  -2.11457882615553E-13
     -4.75574810508950E-11  -4.77689389335105E-11  -1.27348686407382E-17   6.40000000000000E-02   6.40000000000000E-02
      0.00000000000000E+00   0.00000000000000E+00   0.00000000000000E+00   0.00000000000000E+00   0.00000000000000E+00
     -7.10882968068633E-17   2.90000000000000E-01   2.90000000000000E-01   0.00000000000000E+00   0.00000000000000E+00
      4.77629432081119E-11   5.99572539862332E-15   4.77689389335105E-11   1.50210181031600E-17   3.20000000000000E-01
      3.20000000000000E-01   0.00000000000000E+00   0.00000000000000E+00   0.00000000000000E+00   0.00000000000000E+00
      0.00000000000000E+00   6.88021473444415E-17
      1.70000000000000E-01
      0.00000000000000E+00   0.00000000000000E+00   0.00000000000000E+00   0.00000000000000E+00  -2.12763641215190E-13
     -4.38850323539486E-11  -4.40977959951637E-11  -1.27782727945708E-17   6.80000000000000E-02   6.80000000000000E-02
      0.00000000000000E+00   0.00000000000000E+00   0.00000000000000E+00   0.00000000000000E+00   0.00000000000000E+00
     -6.99522326412280E-17   2.90000000000000E-01   2.90000000000000E-01   0.00000000000000E+00   0.00000000000000E+00
      4.40918293584851E-11   5.96663667856331E-15   4.40977959951637E-11   1.49780821329467E-17   3.20000000000000E-01
      3.20000000000000E-01   0.00000000000000E+00   0.00000000000000E+00   0.00000000000000E+00   0.00000000000000E+00
      0.00000000000000E+00   6.77524233028521E-17
      1.80000000000000E-01
      0.00000000000000E+00   0.00000000000000E+00   0.00000000000000E+00   0.00000000000000E+00  -2.14071335166793E-13
     -4.04788897732282E-11  -4.06929611083949E-11  -1.28216631101920E-17   7.20000000000000E-02   7.20000000000000E-02
      0.00000000000000E+00   0.00000000000000E+00   0.00000000000000E+00   0.00000000000000E+00   0.00000000000000E+00
     -6.88161726139759E-17   2.90000000000000E-01   2.90000000000000E-01   0.00000000000000E+00   0.00000000000000E+00
      4.06870235517093E-11   5.93755668564355E-15   4.06929611083950E-11   1.49351405994711E-17   3.20000000000000E-01
      3.20000000000000E-01   0.00000000000000E+00   0.00000000000000E+00   0.00000000000000E+00   0.00000000000000E+00
      0.00000000000000E+00   6.67026951246968E-17
      1.90000000000000E-01
      0.00000000000000E+00   0.00000000000000E+00   0.00000000000000E+00   0.00000000000000E+00  -2.15380948576329E-13
     -3.73221587852249E-11  -3.75375397338013E-11  -1.28650398493805E-17   7.60000000000000E-02   7.60000000000000E-02
      0.00000000000000E+00   0.00000000000000E+00   0.00000000000000E+00   0.00000000000000E+00   0.00000000000000E+00
     -6.76801165469746E-17   2.90000000000000E-01   2.90000000000000E-01   0.00000000000000E+00   0.00000000000000E+00
      3.75316312469558E-11   5.90848684553377E-15   3.75375397338013E-11   1.48921934083905E-17   3.20000000000000E-01
      3.20000000000000E-01   0.00000000000000E+00   0.00000000000000E+00   0.00000000000000E+00   0.00000000000000E+00
      0.00000000000000E+00   6.56529629879646E-17
      2.00000000000000E-01
      0.00000000000000E+00   0.00000000000000E+00   0.00000000000000E+00   0.00000000000000E+00  -2.16692465264467E-13
     -3.43988314375447E-11  -3.46155239028092E-11  -1.29084032682655E-17   8.00000000000000E-02   8.00000000000000E-02
      0.00000000000000E+00   0.00000000000000E+00   0.00000000000000E+00   0.00000000000000E+00   0.00000000000000E+00
     -6.65440642640441E-17   2.90000000000000E-01   2.90000000000000E-01   0.00000000000000E+00   0.00000000000000E+00
      3.46096444743285E-11   5.87942848066389E-15   3.46155239028092E-11   1.48492404636075E-17   3.20000000000000E-01
      3.20000000000000E-01   0.00000000000000E+00   0.00000000000000E+00   0.00000000000000E+00   0.00000000000000E+00
      0.00000000000000E+00   6.46032270687021E-17
      2.10000000000000E-01
      0.00000000000000E+00   0.00000000000000E+00   0.00000000000000E+00   0.00000000000000E+00  -2.18005868810557E-13
     -3.16937517611988E-11  -3.19117576300093E-11  -1.29517536174599E-17   8.40000000000000E-02   8.40000000000000E-02
      0.00000000000000E+00   0.00000000000000E+00   0.00000000000000E+00   0.00000000000000E+00   0.00000000000000E+00
     -6.54080155908674E-17   2.90000000000000E-01   2.90000000000000E-01   0.00000000000000E+00   0.00000000000000E+00
      3.19059072471741E-11   5.85038283519939E-15   3.19117576300094E-11   1.48062816672234E-17   3.20000000000000E-01
      3.20000000000000E-01   0.00000000000000E+00   0.00000000000000E+00   0.00000000000000E+00   0.00000000000000E+00
      0.00000000000000E+00   6.35534875411038E-17
      2.20000000000000E-01
      0.00000000000000E+00   0.00000000000000E+00   0.00000000000000E+00   0.00000000000000E+00  -2.19321142592470E-13
     -2.91925819528704E-11  -2.94119030954628E-11  -1.29950911421901E-17   8.80000000000000E-02   8.80000000000000E-02
      0.00000000000000E+00   0.00000000000000E+00   0.00000000000000E+00   0.00000000000000E+00   0.00000000000000E+00
     -6.42719703549012E-17   2.90000000000000E-01   2.90000000000000E-01   0.00000000000000E+00   0.00000000000000E+00
      2.94060817443889E-11   5.82135107390555E-15   2.94119030954628E-11   1.47633169194924E-17   3.20000000000000E-01
      3.20000000000000E-01   0.00000000000000E+00   0.00000000000000E+00   0.00000000000000E+00   0.00000000000000E+00
      0.00000000000000E+00   6.25037445775990E-17
      2.30000000000000E-01
      0.00000000000000E+00   0.00000000000000E+00   0.00000000000000E+00   0.00000000000000E+00  -2.20638269822870E-13
     -2.68817693315788E-11  -2.71024076014017E-11  -1.30384160824230E-17   9.20000000000000E-02   9.20000000000000E-02
      0.00000000000000E+00   0.00000000000000E+00   0.00000000000000E+00   0.00000000000000E+00   0.00000000000000E+00
     -6.31359283852894E-17   2.90000000000000E-01   2.90000000000000E-01   0.00000000000000E+00   0.00000000000000E+00
      2.70966152671138E-11   5.79233428790400E-15   2.71024076014017E-11   1.47203461187736E-17   3.20000000000000E-01
      3.20000000000000E-01   0.00000000000000E+00   0.00000000000000E+00   0.00000000000000E+00   0.00000000000000E+00
      0.00000000000000E+00   6.14539983489388E-17
      2.40000000000000E-01
      0.00000000000000E+00   0.00000000000000E+00   0.00000000000000E+00   0.00000000000000E+00  -2.21957233582175E-13
     -2.47485140738752E-11  -2.49704713074574E-11  -1.30817286729887E-17   9.60000000000000E-02   9.60000000000000E-02
      0.00000000000000E+00   0.00000000000000E+00   0.00000000000000E+00   0.00000000000000E+00   0.00000000000000E+00
     -6.19998895127761E-17   2.90000000000000E-01   2.90000000000000E-01   0.00000000000000E+00   0.00000000000000E+00
      2.49647079739580E-11   5.76333349941499E-15   2.49704713074574E-11   1.46773691614833E-17   3.20000000000000E-01
      3.20000000000000E-01   0.00000000000000E+00   0.00000000000000E+00   0.00000000000000E+00   0.00000000000000E+00
      0.00000000000000E+00   6.04042490242816E-17
      2.50000000000000E-01
      0.00000000000000E+00   0.00000000000000E+00   0.00000000000000E+00   0.00000000000000E+00  -2.23278016848178E-13
     -2.27807377313980E-11  -2.30040157482461E-11  -1.31250291437017E-17   1.00000000000000E-01   1.00000000000000E-01
      0.00000000000000E+00   0.00000000000000E+00   0.00000000000000E+00   0.00000000000000E+00   0.00000000000000E+00
     -6.08638535696218E-17   2.90000000000000E-01   2.90000000000000E-01   0.00000000000000E+00   0.00000000000000E+00
      2.29982813985718E-11   5.73434967436070E-15   2.30040157482461E-11   1.46343859420461E-17   3.20000000000000E-01
      3.20000000000000E-01   0.00000000000000E+00   0.00000000000000E+00   0.00000000000000E+00   0.00000000000000E+00
      0.00000000000000E+00   5.93544967712774E-17
      2.60000000000000E-01
      0.00000000000000E+00   0.00000000000000E+00   0.00000000000000E+00   0.00000000000000E+00  -2.24600602523416E-13
     -2.09670525342469E-11  -2.11916531367704E-11  -1.31683177194782E-17   1.04000000000000E-01   1.04000000000000E-01
      0.00000000000000E+00   0.00000000000000E+00   0.00000000000000E+00   0.00000000000000E+00   0.00000000000000E+00
     -5.97278203895185E-17   2.90000000000000E-01   2.90000000000000E-01   0.00000000000000E+00   0.00000000000000E+00
      2.11859477530487E-11   5.70538372170031E-15   2.11916531367704E-11   1.45913963528456E-17   3.20000000000000E-01
      3.20000000000000E-01   0.00000000000000E+00   0.00000000000000E+00   0.00000000000000E+00   0.00000000000000E+00
      0.00000000000000E+00   5.83047417561511E-17
      2.70000000000000E-01
      0.00000000000000E+00   0.00000000000000E+00   0.00000000000000E+00   0.00000000000000E+00  -2.25924973459006E-13
     -1.92967314832640E-11  -1.95226564567230E-11  -1.32115946204501E-17   1.08000000000000E-01   1.08000000000000E-01
      0.00000000000000E+00   0.00000000000000E+00   0.00000000000000E+00   0.00000000000000E+00   0.00000000000000E+00
     -5.85917898075078E-17   2.90000000000000E-01   2.90000000000000E-01   0.00000000000000E+00   0.00000000000000E+00
      1.95169800202267E-11   5.67643649629900E-15   1.95226564567230E-11   1.45484002841730E-17   3.20000000000000E-01
      3.20000000000000E-01   0.00000000000000E+00   0.00000000000000E+00   0.00000000000000E+00   0.00000000000000E+00
      0.00000000000000E+00   5.72549841437849E-17
      2.80000000000000E-01
      0.00000000000000E+00   0.00000000000000E+00   0.00000000000000E+00   0.00000000000000E+00  -2.27251112477414E-13
     -1.77596792338684E-11  -1.79869303463458E-11  -1.32548600620776E-17   1.12000000000000E-01   1.12000000000000E-01
      0.00000000000000E+00   0.00000000000000E+00   0.00000000000000E+00   0.00000000000000E+00   0.00000000000000E+00
     -5.74557616598984E-17   2.90000000000000E-01   2.90000000000000E-01   0.00000000000000E+00   0.00000000000000E+00
      1.79812828375342E-11   5.64750881156502E-15   1.79869303463458E-11   1.45053976241766E-17   3.20000000000000E-01
      3.20000000000000E-01   0.00000000000000E+00   0.00000000000000E+00   0.00000000000000E+00   0.00000000000000E+00
      0.00000000000000E+00   5.62052240977994E-17
      2.90000000000000E-01
      0.00000000000000E+00   0.00000000000000E+00   0.00000000000000E+00   0.00000000000000E+00  -2.28579002391774E-13
     -1.63464037735944E-11  -1.65749827759862E-11  -1.32981142552575E-17   1.16000000000000E-01   1.16000000000000E-01
      0.00000000000000E+00   0.00000000000000E+00   0.00000000000000E+00   0.00000000000000E+00   0.00000000000000E+00
     -5.63197357841854E-17   2.90000000000000E-01   2.90000000000000E-01   0.00000000000000E+00   0.00000000000000E+00
      1.65693641745532E-11   5.61860143302902E-15   1.65749827759862E-11   1.44623882588085E-17   3.20000000000000E-01
      3.20000000000000E-01   0.00000000000000E+00   0.00000000000000E+00   0.00000000000000E+00   0.00000000000000E+00
      0.00000000000000E+00   5.51554617806344E-17
      3.00000000000000E-01
      0.00000000000000E+00   0.00000000000000E+00   0.00000000000000E+00   0.00000000000000E+00  -2.29908626024209E-13
     -1.50479888950402E-11  -1.52778975210645E-11  -1.33413574064294E-17   1.20000000000000E-01   1.20000000000000E-01
      0.00000000000000E+00   0.00000000000000E+00   0.00000000000000E+00   0.00000000000000E+00   0.00000000000000E+00
     -5.51837120189705E-17   2.90000000000000E-01   2.90000000000000E-01   0.00000000000000E+00   0.00000000000000E+00
      1.52723078059728E-11   5.58971509161574E-15   1.52778975210645E-11   1.44193720717714E-17   3.20000000000000E-01
      3.20000000000000E-01   0.00000000000000E+00   0.00000000000000E+00   0.00000000000000E+00   0.00000000000000E+00
      0.00000000000000E+00   5.41056973536285E-17
      3.10000000000000E-01
      0.00000000000000E+00   0.00000000000000E+00   0.00000000000000E+00   0.00000000000000E+00  -2.31239966221817E-13
     -1.38560674653468E-11  -1.40873074315686E-11  -1.33845897176800E-17   1.24000000000000E-01   1.24000000000000E-01
      0.00000000000000E+00   0.00000000000000E+00   0.00000000000000E+00   0.00000000000000E+00   0.00000000000000E+00
     -5.40476902038821E-17   2.90000000000000E-01   2.90000000000000E-01   0.00000000000000E+00   0.00000000000000E+00
      1.40817465810872E-11   5.56085048136729E-15   1.40873074315686E-11   1.43763489444642E-17   3.20000000000000E-01
      3.20000000000000E-01   0.00000000000000E+00   0.00000000000000E+00   0.00000000000000E+00   0.00000000000000E+00
      0.00000000000000E+00   5.30559309770979E-17
      3.20000000000000E-01
      0.00000000000000E+00   0.00000000000000E+00   0.00000000000000E+00   0.00000000000000E+00  -2.32573005871179E-13
     -1.27627954928283E-11  -1.29953684986995E-11  -1.34278113868435E-17   1.28000000000000E-01   1.28000000000000E-01
      0.00000000000000E+00   0.00000000000000E+00   0.00000000000000E+00   0.00000000000000E+00   0.00000000000000E+00
     -5.29116701794972E-17   2.90000000000000E-01   2.90000000000000E-01   0.00000000000000E+00   0.00000000000000E+00
      1.29898364904344E-11   5.53200826507067E-15   1.29953684986995E-11   1.43333187559257E-17   3.20000000000000E-01
      3.20000000000000E-01   0.00000000000000E+00   0.00000000000000E+00   0.00000000000000E+00   0.00000000000000E+00
      0.00000000000000E+00   5.20061628104149E-17
      3.30000000000000E-01
      0.00000000000000E+00   0.00000000000000E+00   0.00000000000000E+00   0.00000000000000E+00  -2.33907727911307E-13
     -1.17608269907815E-11  -1.19947347186928E-11  -1.34710226076004E-17   1.32000000000000E-01   1.32000000000000E-01
      0.00000000000000E+00   0.00000000000000E+00   0.00000000000000E+00   0.00000000000000E+00   0.00000000000000E+00
     -5.17756517872633E-17   2.90000000000000E-01   2.90000000000000E-01   0.00000000000000E+00   0.00000000000000E+00
      1.19892315296174E-11   5.50318907534457E-15   1.19947347186928E-11   1.42902813827785E-17   3.20000000000000E-01
      3.20000000000000E-01   0.00000000000000E+00   0.00000000000000E+00   0.00000000000000E+00   0.00000000000000E+00
      0.00000000000000E+00   5.09563930120852E-17
      3.40000000000000E-01
      0.00000000000000E+00   0.00000000000000E+00   0.00000000000000E+00   0.00000000000000E+00  -2.35244115345289E-13
     -1.08432896379329E-11  -1.10785337532782E-11  -1.35142235695738E-17   1.36000000000000E-01   1.36000000000000E-01
      0.00000000000000E+00   0.00000000000000E+00   0.00000000000000E+00   0.00000000000000E+00   0.00000000000000E+00
     -5.06396348694213E-17   2.90000000000000E-01   2.90000000000000E-01   0.00000000000000E+00   0.00000000000000E+00
      1.10730593597584E-11   5.47439351974536E-15   1.10785337532782E-11   1.42472366991700E-17   3.20000000000000E-01
      3.20000000000000E-01   0.00000000000000E+00   0.00000000000000E+00   0.00000000000000E+00   0.00000000000000E+00
      0.00000000000000E+00   4.99066217398250E-17
      3.50000000000000E-01
      0.00000000000000E+00   0.00000000000000E+00   0.00000000000000E+00   0.00000000000000E+00  -2.36582151250490E-13
     -1.00037612343804E-11  -1.02403433856309E-11  -1.35574144584230E-17   1.40000000000000E-01   1.40000000000000E-01
      0.00000000000000E+00   0.00000000000000E+00   0.00000000000000E+00   0.00000000000000E+00   0.00000000000000E+00
     -4.95036192689285E-17   2.90000000000000E-01   2.90000000000000E-01   0.00000000000000E+00   0.00000000000000E+00
      1.02348977634478E-11   5.44562218308673E-15   1.02403433856309E-11   1.42041845767140E-17   3.20000000000000E-01
      3.20000000000000E-01   0.00000000000000E+00   0.00000000000000E+00   0.00000000000000E+00   0.00000000000000E+00
      0.00000000000000E+00   4.88568491506375E-17
      3.60000000000000E-01
      0.00000000000000E+00   0.00000000000000E+00   0.00000000000000E+00   0.00000000000000E+00  -2.37921818787866E-13
     -9.23624695128955E-12  -9.47416877007742E-12  -1.36005954559350E-17   1.44000000000000E-01   1.44000000000000E-01
      0.00000000000000E+00   0.00000000000000E+00   0.00000000000000E+00   0.00000000000000E+00   0.00000000000000E+00
     -4.83676048293827E-17   2.90000000000000E-01   2.90000000000000E-01   0.00000000000000E+00   0.00000000000000E+00
      9.46875189444980E-12   5.41687562761606E-15   9.47416877007742E-12   1.41611248844290E-17   3.20000000000000E-01
      3.20000000000000E-01   0.00000000000000E+00   0.00000000000000E+00   0.00000000000000E+00   0.00000000000000E+00
      0.00000000000000E+00   4.78070754008887E-17
      3.70000000000000E-01
      0.00000000000000E+00   0.00000000000000E+00   0.00000000000000E+00   0.00000000000000E+00  -2.39263101209878E-13