DF-ISE text

Info {
  version   = 1.0
  type      = xyplot
  datasets  = [
    "time"
    "source OuterVoltage" "source InnerVoltage" "source QuasiFermiPotential" "source DisplacementCurrent" "source eCurrent"
    "source hCurrent" "source TotalCurrent" "source Charge" "topGate OuterVoltage" "topGate InnerVoltage"
    "topGate QuasiFermiPotential" "topGate DisplacementCurrent" "topGate eCurrent" "topGate hCurrent" "topGate TotalCurrent"
    "topGate Charge" "drain OuterVoltage" "drain InnerVoltage" "drain QuasiFermiPotential" "drain DisplacementCurrent"
    "drain eCurrent" "drain hCurrent" "drain TotalCurrent" "drain Charge" "bottomGate OuterVoltage"
    "bottomGate InnerVoltage" "bottomGate QuasiFermiPotential" "bottomGate DisplacementCurrent" "bottomGate eCurrent" "bottomGate hCurrent"
    "bottomGate TotalCurrent" "bottomGate Charge" ]
  functions = [
    Time
    OuterVoltage InnerVoltage QuasiFermiPotential DisplacementCurrent eCurrent
    hCurrent TotalCurrent Charge OuterVoltage InnerVoltage
    QuasiFermiPotential DisplacementCurrent eCurrent hCurrent TotalCurrent
    Charge OuterVoltage InnerVoltage QuasiFermiPotential DisplacementCurrent
    eCurrent hCurrent TotalCurrent Charge OuterVoltage
    InnerVoltage QuasiFermiPotential DisplacementCurrent eCurrent hCurrent
    TotalCurrent Charge ]
}

Data {
      1.00000000000000E-02
      0.00000000000000E+00   0.00000000000000E+00   0.00000000000000E+00   0.00000000000000E+00  -1.85796285408571E-13
     -1.69460312956421E-10  -1.69646109241830E-10  -1.18634295644402E-17   4.00000000000000E-03   4.00000000000000E-03
      0.00000000000000E+00   0.00000000000000E+00   0.00000000000000E+00   0.00000000000000E+00   0.00000000000000E+00
     -8.30959043957280E-17   3.10000000000000E-01   3.10000000000000E-01   0.00000000000000E+00   0.00000000000000E+00
      1.69639250245811E-10   6.85899601912204E-15   1.69646109241830E-10   1.63069114680726E-17   3.00000000000000E-01
      3.00000000000000E-01   0.00000000000000E+00   0.00000000000000E+00   0.00000000000000E+00   0.00000000000000E+00
      0.00000000000000E+00   7.86524224920955E-17
      2.00000000000000E-02
      0.00000000000000E+00   0.00000000000000E+00   0.00000000000000E+00   0.00000000000000E+00  -1.87058825783484E-13
     -1.57774630884133E-10  -1.57961689709917E-10  -1.19071754808487E-17   8.00000000000000E-03   8.00000000000000E-03
      0.00000000000000E+00   0.00000000000000E+00   0.00000000000000E+00   0.00000000000000E+00   0.00000000000000E+00
     -8.19597348549423E-17   3.10000000000000E-01   3.10000000000000E-01   0.00000000000000E+00   0.00000000000000E+00
      1.57954858316422E-10   6.83139349552874E-15   1.57961689709917E-10   1.62641065816092E-17   3.00000000000000E-01
      3.00000000000000E-01   0.00000000000000E+00   0.00000000000000E+00   0.00000000000000E+00   0.00000000000000E+00
      0.00000000000000E+00   7.76028037541818E-17
      3.00000000000000E-02
      0.00000000000000E+00   0.00000000000000E+00   0.00000000000000E+00   0.00000000000000E+00  -1.88323628049652E-13
     -1.46804071648729E-10  -1.46992395276779E-10  -1.19509008994591E-17   1.20000000000000E-02   1.20000000000000E-02
      0.00000000000000E+00   0.00000000000000E+00   0.00000000000000E+00   0.00000000000000E+00   0.00000000000000E+00
     -8.08235738627037E-17   3.10000000000000E-01   3.10000000000000E-01   0.00000000000000E+00   0.00000000000000E+00
      1.46985591649791E-10   6.80362698799420E-15   1.46992395276779E-10   1.62212982871332E-17   3.00000000000000E-01
      3.00000000000000E-01   0.00000000000000E+00   0.00000000000000E+00   0.00000000000000E+00   0.00000000000000E+00
      0.00000000000000E+00   7.65531764750295E-17
      4.00000000000000E-02
      0.00000000000000E+00   0.00000000000000E+00   0.00000000000000E+00   0.00000000000000E+00  -1.89590685910456E-13
     -1.36511438816643E-10  -1.36701029502553E-10  -1.19946062288792E-17   1.60000000000000E-02   1.60000000000000E-02
      0.00000000000000E+00   0.00000000000000E+00   0.00000000000000E+00   0.00000000000000E+00   0.00000000000000E+00
     -7.96874211857736E-17   3.10000000000000E-01   3.10000000000000E-01   0.00000000000000E+00   0.00000000000000E+00
      1.36694253791453E-10   6.77571109989145E-15   1.36701029502553E-10   1.61784865273270E-17   3.00000000000000E-01
      3.00000000000000E-01   0.00000000000000E+00   0.00000000000000E+00   0.00000000000000E+00   0.00000000000000E+00
      0.00000000000000E+00   7.55035408873258E-17
      5.00000000000000E-02
      0.00000000000000E+00   0.00000000000000E+00   0.00000000000000E+00   0.00000000000000E+00  -1.90859991498794E-13
     -1.26861080515169E-10  -1.27051940506668E-10  -1.20382918685663E-17   2.00000000000000E-02   2.00000000000000E-02
      0.00000000000000E+00   0.00000000000000E+00   0.00000000000000E+00   0.00000000000000E+00   0.00000000000000E+00
     -7.85512765951707E-17   3.10000000000000E-01   3.10000000000000E-01   0.00000000000000E+00   0.00000000000000E+00
      1.27045192847396E-10   6.74765927196983E-15   1.27051940506668E-10   1.61356712441958E-17   3.00000000000000E-01
      3.00000000000000E-01   0.00000000000000E+00   0.00000000000000E+00   0.00000000000000E+00   0.00000000000000E+00
      0.00000000000000E+00   7.44538972195412E-17
      6.00000000000000E-02
      0.00000000000000E+00   0.00000000000000E+00   0.00000000000000E+00   0.00000000000000E+00  -1.92131535537870E-13
     -1.17818844333496E-10  -1.18010975869034E-10  -1.20819582090471E-17   2.40000000000000E-02   2.40000000000000E-02
      0.00000000000000E+00   0.00000000000000E+00   0.00000000000000E+00   0.00000000000000E+00   0.00000000000000E+00
     -7.74151398660387E-17   3.10000000000000E-01   3.10000000000000E-01   0.00000000000000E+00   0.00000000000000E+00
      1.18004256385139E-10   6.71948389450899E-15   1.18010975869034E-10   1.60928523790267E-17   3.00000000000000E-01
      3.00000000000000E-01   0.00000000000000E+00   0.00000000000000E+00   0.00000000000000E+00   0.00000000000000E+00
      0.00000000000000E+00   7.34042456960590E-17
      7.00000000000000E-02
      0.00000000000000E+00   0.00000000000000E+00   0.00000000000000E+00   0.00000000000000E+00  -1.93405307487862E-13
     -1.09352032851535E-10  -1.09545438159023E-10  -1.21256056321319E-17   2.80000000000000E-02   2.80000000000000E-02
      0.00000000000000E+00   0.00000000000000E+00   0.00000000000000E+00   0.00000000000000E+00   0.00000000000000E+00
     -7.62790107775176E-17   3.10000000000000E-01   3.10000000000000E-01   0.00000000000000E+00   0.00000000000000E+00
      1.09538746962635E-10   6.69119638790046E-15   1.09545438159023E-10   1.60500298723490E-17   3.00000000000000E-01
      3.00000000000000E-01   0.00000000000000E+00   0.00000000000000E+00   0.00000000000000E+00   0.00000000000000E+00
      0.00000000000000E+00   7.23545865373005E-17
      8.00000000000000E-02
      0.00000000000000E+00   0.00000000000000E+00   0.00000000000000E+00   0.00000000000000E+00  -1.94681295680056E-13
     -1.01429359800336E-10  -1.01624041096016E-10  -1.21692345111238E-17   3.20000000000000E-02   3.20000000000000E-02
      0.00000000000000E+00   0.00000000000000E+00   0.00000000000000E+00   0.00000000000000E+00   0.00000000000000E+00
     -7.51428891126190E-17   3.10000000000000E-01   3.10000000000000E-01   0.00000000000000E+00   0.00000000000000E+00
      1.01617378288759E-10   6.66280725717195E-15   1.01624041096016E-10   1.60072036638951E-17   3.00000000000000E-01
      3.00000000000000E-01   0.00000000000000E+00   0.00000000000000E+00   0.00000000000000E+00   0.00000000000000E+00
      0.00000000000000E+00   7.13049199598477E-17
      9.00000000000000E-02
      0.00000000000000E+00   0.00000000000000E+00   0.00000000000000E+00   0.00000000000000E+00  -1.95959487438471E-13
     -9.40209068587311E-11  -9.42168663461696E-11  -1.22128452110226E-17   3.60000000000000E-02   3.60000000000000E-02
      0.00000000000000E+00   0.00000000000000E+00   0.00000000000000E+00   0.00000000000000E+00   0.00000000000000E+00
     -7.40067746581040E-17   3.10000000000000E-01   3.10000000000000E-01   0.00000000000000E+00   0.00000000000000E+00
      9.42102320199636E-11   6.63432620596402E-15   9.42168663461695E-11   1.59643736925632E-17   3.00000000000000E-01
      3.00000000000000E-01   0.00000000000000E+00   0.00000000000000E+00   0.00000000000000E+00   0.00000000000000E+00
      0.00000000000000E+00   7.02552461765634E-17
      1.00000000000000E-01
      0.00000000000000E+00   0.00000000000000E+00   0.00000000000000E+00   0.00000000000000E+00  -1.97239869191268E-13
     -8.70980810913430E-11  -8.72953209605342E-11  -1.22564380887237E-17   4.00000000000000E-02   4.00000000000000E-02
      0.00000000000000E+00   0.00000000000000E+00   0.00000000000000E+00   0.00000000000000E+00   0.00000000000000E+00
     -7.28706672043636E-17   3.10000000000000E-01   3.10000000000000E-01   0.00000000000000E+00   0.00000000000000E+00
      8.72887151983834E-11   6.60576215079404E-15   8.72953209605342E-11   1.59215398963792E-17   3.00000000000000E-01
      3.00000000000000E-01   0.00000000000000E+00   0.00000000000000E+00   0.00000000000000E+00   0.00000000000000E+00
      0.00000000000000E+00   6.92055653967081E-17
      1.10000000000000E-01
      0.00000000000000E+00   0.00000000000000E+00   0.00000000000000E+00   0.00000000000000E+00  -1.98522426572131E-13
     -8.06335730339703E-11  -8.08320954605425E-11  -1.23000134932122E-17   4.40000000000000E-02   4.40000000000000E-02
      0.00000000000000E+00   0.00000000000000E+00   0.00000000000000E+00   0.00000000000000E+00   0.00000000000000E+00
     -7.17345665453022E-17   3.10000000000000E-01   3.10000000000000E-01   0.00000000000000E+00   0.00000000000000E+00
      8.08255183372135E-11   6.57712332891674E-15   8.08320954605424E-11   1.58787022124607E-17   3.00000000000000E-01
      3.00000000000000E-01   0.00000000000000E+00   0.00000000000000E+00   0.00000000000000E+00   0.00000000000000E+00
      0.00000000000000E+00   6.81558778260537E-17
      1.20000000000000E-01
      0.00000000000000E+00   0.00000000000000E+00   0.00000000000000E+00   0.00000000000000E+00  -1.99807144512485E-13
     -7.46013154324855E-11  -7.48011225769980E-11  -1.23435717657519E-17   4.80000000000000E-02   4.80000000000000E-02
      0.00000000000000E+00   0.00000000000000E+00   0.00000000000000E+00   0.00000000000000E+00   0.00000000000000E+00
     -7.05984724782251E-17   3.10000000000000E-01   3.10000000000000E-01   0.00000000000000E+00   0.00000000000000E+00
      7.47945741596808E-11   6.54841731719212E-15   7.48011225769980E-11   1.58358605769807E-17   3.00000000000000E-01
      3.00000000000000E-01   0.00000000000000E+00   0.00000000000000E+00   0.00000000000000E+00   0.00000000000000E+00
      0.00000000000000E+00   6.71061836669963E-17
      1.30000000000000E-01
      0.00000000000000E+00   0.00000000000000E+00   0.00000000000000E+00   0.00000000000000E+00  -2.01094007325686E-13
     -6.89764426420645E-11  -6.91775366493902E-11  -1.23871132400697E-17   5.20000000000000E-02   5.20000000000000E-02
      0.00000000000000E+00   0.00000000000000E+00   0.00000000000000E+00   0.00000000000000E+00   0.00000000000000E+00
     -6.94623848037262E-17   3.10000000000000E-01   3.10000000000000E-01   0.00000000000000E+00   0.00000000000000E+00
      6.91710169982773E-11   6.51965111301125E-15   6.91775366493903E-11   1.57930149251314E-17   3.00000000000000E-01
      3.00000000000000E-01   0.00000000000000E+00   0.00000000000000E+00   0.00000000000000E+00   0.00000000000000E+00
      0.00000000000000E+00   6.60564831186644E-17
      1.40000000000000E-01
      0.00000000000000E+00   0.00000000000000E+00   0.00000000000000E+00   0.00000000000000E+00  -2.02382998783434E-13
     -6.37352506935924E-11  -6.39376336923758E-11  -1.24306382425359E-17   5.60000000000000E-02   5.60000000000000E-02
      0.00000000000000E+00   0.00000000000000E+00   0.00000000000000E+00   0.00000000000000E+00   0.00000000000000E+00
     -6.83263033255804E-17   3.10000000000000E-01   3.10000000000000E-01   0.00000000000000E+00   0.00000000000000E+00
      6.39311428612130E-11   6.49083116283092E-15   6.39376336923759E-11   1.57501651910896E-17   3.00000000000000E-01
      3.00000000000000E-01   0.00000000000000E+00   0.00000000000000E+00   0.00000000000000E+00   0.00000000000000E+00
      0.00000000000000E+00   6.50067763770267E-17
      1.50000000000000E-01
      0.00000000000000E+00   0.00000000000000E+00   0.00000000000000E+00   0.00000000000000E+00  -2.03674102185441E-13
     -5.88551580344854E-11  -5.90588321366708E-11  -1.24741470923394E-17   6.00000000000000E-02   6.00000000000000E-02
      0.00000000000000E+00   0.00000000000000E+00   0.00000000000000E+00   0.00000000000000E+00   0.00000000000000E+00
     -6.71902278506372E-17   3.10000000000000E-01   3.10000000000000E-01   0.00000000000000E+00   0.00000000000000E+00
      5.90523701732496E-11   6.46196342121751E-15   5.90588321366708E-11   1.57073113079809E-17   3.00000000000000E-01
      3.00000000000000E-01   0.00000000000000E+00   0.00000000000000E+00   0.00000000000000E+00   0.00000000000000E+00
      0.00000000000000E+00   6.39570636349957E-17
      1.60000000000000E-01
      0.00000000000000E+00   0.00000000000000E+00   0.00000000000000E+00   0.00000000000000E+00  -2.04967300422853E-13
     -5.43146669511501E-11  -5.45196342515729E-11  -1.25176401016588E-17   6.40000000000000E-02   6.40000000000000E-02
      0.00000000000000E+00   0.00000000000000E+00   0.00000000000000E+00   0.00000000000000E+00   0.00000000000000E+00
     -6.60541581887170E-17   3.10000000000000E-01   3.10000000000000E-01   0.00000000000000E+00   0.00000000000000E+00
      5.45132011982016E-11   6.43305337129787E-15   5.45196342515729E-11   1.56644532078446E-17   3.00000000000000E-01
      3.00000000000000E-01   0.00000000000000E+00   0.00000000000000E+00   0.00000000000000E+00   0.00000000000000E+00
      0.00000000000000E+00   6.29073450825311E-17
      1.70000000000000E-01
      0.00000000000000E+00   0.00000000000000E+00   0.00000000000000E+00   0.00000000000000E+00  -2.06262576035757E-13
     -5.00933256804985E-11  -5.02995882565343E-11  -1.25611175758293E-17   6.80000000000000E-02   6.80000000000000E-02
      0.00000000000000E+00   0.00000000000000E+00   0.00000000000000E+00   0.00000000000000E+00   0.00000000000000E+00
     -6.49180941525096E-17   3.10000000000000E-01   3.10000000000000E-01   0.00000000000000E+00   0.00000000000000E+00
      5.02931841504569E-11   6.40410607734959E-15   5.02995882565343E-11   1.56215908215996E-17   3.00000000000000E-01
      3.00000000000000E-01   0.00000000000000E+00   0.00000000000000E+00   0.00000000000000E+00   0.00000000000000E+00
      0.00000000000000E+00   6.18576209067394E-17
      1.80000000000000E-01
      0.00000000000000E+00   0.00000000000000E+00   0.00000000000000E+00   0.00000000000000E+00  -2.07559911265477E-13
     -4.61716912178102E-11  -4.63792511290757E-11  -1.26045798135058E-17   7.20000000000000E-02   7.20000000000000E-02
      0.00000000000000E+00   0.00000000000000E+00   0.00000000000000E+00   0.00000000000000E+00   0.00000000000000E+00
     -6.37820355574747E-17   3.10000000000000E-01   3.10000000000000E-01   0.00000000000000E+00   0.00000000000000E+00
      4.63728760028572E-11   6.37512621833110E-15   4.63792511290756E-11   1.55787240790084E-17   3.00000000000000E-01
      3.00000000000000E-01   0.00000000000000E+00   0.00000000000000E+00   0.00000000000000E+00   0.00000000000000E+00
      0.00000000000000E+00   6.08078912919722E-17
      1.90000000000000E-01
      0.00000000000000E+00   0.00000000000000E+00   0.00000000000000E+00   0.00000000000000E+00  -2.08859288102150E-13
     -4.25312928282492E-11  -4.27401521163514E-11  -1.26480271068210E-17   7.60000000000000E-02   7.60000000000000E-02
      0.00000000000000E+00   0.00000000000000E+00   0.00000000000000E+00   0.00000000000000E+00   0.00000000000000E+00
     -6.26459822217445E-17   3.10000000000000E-01   3.10000000000000E-01   0.00000000000000E+00   0.00000000000000E+00
      4.27338059982330E-11   6.34611811836388E-15   4.27401521163514E-11   1.55358529086429E-17   3.00000000000000E-01
      3.00000000000000E-01   0.00000000000000E+00   0.00000000000000E+00   0.00000000000000E+00   0.00000000000000E+00
      0.00000000000000E+00   5.97581564199227E-17
      2.00000000000000E-01
      0.00000000000000E+00   0.00000000000000E+00   0.00000000000000E+00   0.00000000000000E+00  -2.10160688327916E-13
     -3.91545962691935E-11  -3.93647569575215E-11  -1.26914597415407E-17   8.00000000000000E-02   8.00000000000000E-02
      0.00000000000000E+00   0.00000000000000E+00   0.00000000000000E+00   0.00000000000000E+00   0.00000000000000E+00
     -6.15099339660285E-17   3.10000000000000E-01   3.10000000000000E-01   0.00000000000000E+00   0.00000000000000E+00
      3.93584398717540E-11   6.31708576744657E-15   3.93647569575214E-11   1.54929772378492E-17   3.00000000000000E-01
      3.00000000000000E-01   0.00000000000000E+00   0.00000000000000E+00   0.00000000000000E+00   0.00000000000000E+00
      0.00000000000000E+00   5.87084164697201E-17
      2.10000000000000E-01
      0.00000000000000E+00   0.00000000000000E+00   0.00000000000000E+00   0.00000000000000E+00  -2.11464093555869E-13
     -3.60249687304044E-11  -3.62364328239603E-11  -1.27348779972144E-17   8.40000000000000E-02   8.40000000000000E-02
      0.00000000000000E+00   0.00000000000000E+00   0.00000000000000E+00   0.00000000000000E+00   0.00000000000000E+00
     -6.03738906135199E-17   3.10000000000000E-01   3.10000000000000E-01   0.00000000000000E+00   0.00000000000000E+00
      3.62301447911004E-11   6.28803285991972E-15   3.62364328239603E-11   1.54500969927122E-17   3.00000000000000E-01
      3.00000000000000E-01   0.00000000000000E+00   0.00000000000000E+00   0.00000000000000E+00   0.00000000000000E+00
      0.00000000000000E+00   5.76586716180221E-17
      2.20000000000000E-01
      0.00000000000000E+00   0.00000000000000E+00   0.00000000000000E+00   0.00000000000000E+00  -2.12769485265659E-13
     -3.31266444987865E-11  -3.33394139840521E-11  -1.27782821473227E-17   8.80000000000000E-02   8.80000000000000E-02
      0.00000000000000E+00   0.00000000000000E+00   0.00000000000000E+00   0.00000000000000E+00   0.00000000000000E+00
     -5.92378519898034E-17   3.10000000000000E-01   3.10000000000000E-01   0.00000000000000E+00   0.00000000000000E+00
      3.33331550212405E-11   6.25896281164262E-15   3.33394139840521E-11   1.54072120980204E-17   3.00000000000000E-01
      3.00000000000000E-01   0.00000000000000E+00   0.00000000000000E+00   0.00000000000000E+00   0.00000000000000E+00
      0.00000000000000E+00   5.66089220391058E-17
      2.30000000000000E-01
      0.00000000000000E+00   0.00000000000000E+00   0.00000000000000E+00   0.00000000000000E+00  -2.14076844835544E-13
     -3.04446913542883E-11  -3.06587681991239E-11  -1.28216724594206E-17   9.20000000000000E-02   9.20000000000000E-02
      0.00000000000000E+00   0.00000000000000E+00   0.00000000000000E+00   0.00000000000000E+00   0.00000000000000E+00
     -5.81018179227660E-17   3.10000000000000E-01   3.10000000000000E-01   0.00000000000000E+00   0.00000000000000E+00
      3.06525383203364E-11   6.22987878750355E-15   3.06587681991239E-11   1.53643224772299E-17   3.00000000000000E-01
      3.00000000000000E-01   0.00000000000000E+00   0.00000000000000E+00   0.00000000000000E+00   0.00000000000000E+00
      0.00000000000000E+00   5.55591679049567E-17
      2.40000000000000E-01
      0.00000000000000E+00   0.00000000000000E+00   0.00000000000000E+00   0.00000000000000E+00  -2.15386153571447E-13
     -2.79649777031418E-11  -2.81803638567133E-11  -1.28650491952780E-17   9.60000000000000E-02   9.60000000000000E-02
      0.00000000000000E+00   0.00000000000000E+00   0.00000000000000E+00   0.00000000000000E+00   0.00000000000000E+00
     -5.69657882425077E-17   3.10000000000000E-01   3.10000000000000E-01   0.00000000000000E+00   0.00000000000000E+00
      2.81741630729963E-11   6.20078371707267E-15   2.81803638567133E-11   1.53214280524288E-17   3.00000000000000E-01
      3.00000000000000E-01   0.00000000000000E+00   0.00000000000000E+00   0.00000000000000E+00   0.00000000000000E+00
      0.00000000000000E+00   5.45094093853569E-17
      2.50000000000000E-01
      0.00000000000000E+00   0.00000000000000E+00   0.00000000000000E+00   0.00000000000000E+00  -2.16697392733225E-13
     -2.56741404543366E-11  -2.58908378470698E-11  -1.29084126110154E-17   1.00000000000000E-01   1.00000000000000E-01
      0.00000000000000E+00   0.00000000000000E+00   0.00000000000000E+00   0.00000000000000E+00   0.00000000000000E+00
     -5.58297627812556E-17   3.10000000000000E-01   3.10000000000000E-01   0.00000000000000E+00   0.00000000000000E+00
      2.58846661667514E-11   6.17168031846869E-15   2.58908378470699E-11   1.52785287443005E-17   3.00000000000000E-01
      3.00000000000000E-01   0.00000000000000E+00   0.00000000000000E+00   0.00000000000000E+00   0.00000000000000E+00
      0.00000000000000E+00   5.34596466479705E-17
      2.60000000000000E-01
      0.00000000000000E+00   0.00000000000000E+00   0.00000000000000E+00   0.00000000000000E+00  -2.18010543558391E-13
     -2.35595536448049E-11  -2.37775641883633E-11  -1.29517629572378E-17   1.04000000000000E-01   1.04000000000000E-01
      0.00000000000000E+00   0.00000000000000E+00   0.00000000000000E+00   0.00000000000000E+00   0.00000000000000E+00
     -5.46937413732779E-17   3.10000000000000E-01   3.10000000000000E-01   0.00000000000000E+00   0.00000000000000E+00
      2.37714216172510E-11   6.14257111234598E-15   2.37775641883634E-11   1.52356244720870E-17   3.00000000000000E-01
      3.00000000000000E-01   0.00000000000000E+00   0.00000000000000E+00   0.00000000000000E+00   0.00000000000000E+00
      0.00000000000000E+00   5.24098798584288E-17
      2.70000000000000E-01
      0.00000000000000E+00   0.00000000000000E+00   0.00000000000000E+00   0.00000000000000E+00  -2.19325587283518E-13
     -2.16092978184071E-11  -2.18286234056906E-11  -1.29951004791643E-17   1.08000000000000E-01   1.08000000000000E-01
      0.00000000000000E+00   0.00000000000000E+00   0.00000000000000E+00   0.00000000000000E+00   0.00000000000000E+00
     -5.35577238548005E-17   3.10000000000000E-01   3.10000000000000E-01   0.00000000000000E+00   0.00000000000000E+00
      2.18225099472532E-11   6.11345843743445E-15   2.18286234056907E-11   1.51927151535516E-17   3.00000000000000E-01
      3.00000000000000E-01   0.00000000000000E+00   0.00000000000000E+00   0.00000000000000E+00   0.00000000000000E+00
      0.00000000000000E+00   5.13601091804132E-17
      2.80000000000000E-01
      0.00000000000000E+00   0.00000000000000E+00   0.00000000000000E+00   0.00000000000000E+00  -2.20642505163428E-13
     -1.98121301633607E-11  -2.00327726685241E-11  -1.30384254167542E-17   1.12000000000000E-01   1.12000000000000E-01
      0.00000000000000E+00   0.00000000000000E+00   0.00000000000000E+00   0.00000000000000E+00   0.00000000000000E+00
     -5.24217100639242E-17   3.10000000000000E-01   3.10000000000000E-01   0.00000000000000E+00   0.00000000000000E+00
      2.00266883240493E-11   6.08434447485000E-15   2.00327726685241E-11   1.51498007049412E-17   3.00000000000000E-01
      3.00000000000000E-01   0.00000000000000E+00   0.00000000000000E+00   0.00000000000000E+00   0.00000000000000E+00
      0.00000000000000E+00   5.03103347757371E-17
      2.90000000000000E-01
      0.00000000000000E+00   0.00000000000000E+00   0.00000000000000E+00   0.00000000000000E+00  -2.21961278488647E-13
     -1.81574554122376E-11  -1.83794166907263E-11  -1.30817380048314E-17   1.16000000000000E-01   1.16000000000000E-01
      0.00000000000000E+00   0.00000000000000E+00   0.00000000000000E+00   0.00000000000000E+00   0.00000000000000E+00
     -5.12856998405439E-17   3.10000000000000E-01   3.10000000000000E-01   0.00000000000000E+00   0.00000000000000E+00
      1.83733614594790E-11   6.05523124729125E-15   1.83794166907263E-11   1.51068810409483E-17   3.00000000000000E-01
      3.00000000000000E-01   0.00000000000000E+00   0.00000000000000E+00   0.00000000000000E+00   0.00000000000000E+00
      0.00000000000000E+00   4.92605568044270E-17
      3.00000000000000E-01
      0.00000000000000E+00   0.00000000000000E+00   0.00000000000000E+00   0.00000000000000E+00  -2.23281888600805E-13
     -1.66352975082396E-11  -1.68585793968404E-11  -1.31250384732040E-17   1.20000000000000E-01   1.20000000000000E-01
      0.00000000000000E+00   0.00000000000000E+00   0.00000000000000E+00   0.00000000000000E+00   0.00000000000000E+00
     -5.01496930262685E-17   3.10000000000000E-01   3.10000000000000E-01   0.00000000000000E+00   0.00000000000000E+00
      1.68525532761984E-11   6.02612064202853E-15   1.68585793968404E-11   1.50639560746713E-17   3.00000000000000E-01
      3.00000000000000E-01   0.00000000000000E+00   0.00000000000000E+00   0.00000000000000E+00   0.00000000000000E+00
      0.00000000000000E+00   4.82107754248011E-17
      3.10000000000000E-01
      0.00000000000000E+00   0.00000000000000E+00   0.00000000000000E+00   0.00000000000000E+00  -2.24604316906716E-13
     -1.52362720408482E-11  -1.54608763577549E-11  -1.31683270467821E-17   1.24000000000000E-01   1.24000000000000E-01
      0.00000000000000E+00   0.00000000000000E+00   0.00000000000000E+00   0.00000000000000E+00   0.00000000000000E+00
     -4.90136894643422E-17   3.10000000000000E-01   3.10000000000000E-01   0.00000000000000E+00   0.00000000000000E+00
      1.54548793433376E-11   5.99701441731699E-15   1.54608763577549E-11   1.50210257175761E-17   3.00000000000000E-01
      3.00000000000000E-01   0.00000000000000E+00   0.00000000000000E+00   0.00000000000000E+00   0.00000000000000E+00
      0.00000000000000E+00   4.71609907935482E-17
      3.20000000000000E-01
      0.00000000000000E+00   0.00000000000000E+00   0.00000000000000E+00   0.00000000000000E+00  -2.25928544890745E-13
     -1.39515594534730E-11  -1.41774879983637E-11  -1.32116039456925E-17   1.28000000000000E-01   1.28000000000000E-01
      0.00000000000000E+00   0.00000000000000E+00   0.00000000000000E+00   0.00000000000000E+00   0.00000000000000E+00
     -4.78776889995673E-17   3.10000000000000E-01   3.10000000000000E-01   0.00000000000000E+00   0.00000000000000E+00
      1.41715200841468E-11   5.96791421690944E-15   1.41774879983637E-11   1.49780898794552E-17   3.00000000000000E-01
      3.00000000000000E-01   0.00000000000000E+00   0.00000000000000E+00   0.00000000000000E+00   0.00000000000000E+00
      0.00000000000000E+00   4.61112030658046E-17
      3.30000000000000E-01
      0.00000000000000E+00   0.00000000000000E+00   0.00000000000000E+00   0.00000000000000E+00  -2.27254554125917E-13
     -1.27728790251214E-11  -1.30001335792473E-11  -1.32548693853898E-17   1.32000000000000E-01   1.32000000000000E-01
      0.00000000000000E+00   0.00000000000000E+00   0.00000000000000E+00   0.00000000000000E+00   0.00000000000000E+00
     -4.67416914782270E-17   3.10000000000000E-01   3.10000000000000E-01   0.00000000000000E+00   0.00000000000000E+00
      1.29941947576707E-11   5.93882157663651E-15   1.30001335792473E-11   1.49351484683869E-17   3.00000000000000E-01
      3.00000000000000E-01   0.00000000000000E+00   0.00000000000000E+00   0.00000000000000E+00   0.00000000000000E+00
      0.00000000000000E+00   4.50614123952299E-17
      3.40000000000000E-01
      0.00000000000000E+00   0.00000000000000E+00   0.00000000000000E+00   0.00000000000000E+00  -2.28582326283863E-13
     -1.16924636275700E-11  -1.19210459538539E-11  -1.32981235767660E-17   1.36000000000000E-01   1.36000000000000E-01
      0.00000000000000E+00   0.00000000000000E+00   0.00000000000000E+00   0.00000000000000E+00   0.00000000000000E+00
     -4.56056967480107E-17   3.10000000000000E-01   3.10000000000000E-01   0.00000000000000E+00   0.00000000000000E+00
      1.19151362159194E-11   5.90973793444300E-15   1.19210459538539E-11   1.48922013906941E-17   3.00000000000000E-01
      3.00000000000000E-01   0.00000000000000E+00   0.00000000000000E+00   0.00000000000000E+00   0.00000000000000E+00
      0.00000000000000E+00   4.40116189340826E-17
      3.50000000000000E-01
      0.00000000000000E+00   0.00000000000000E+00   0.00000000000000E+00   0.00000000000000E+00  -2.29911843143475E-13
     -1.07030352589233E-11  -1.09329471020668E-11  -1.33413667262564E-17   1.40000000000000E-01   1.40000000000000E-01
      0.00000000000000E+00   0.00000000000000E+00   0.00000000000000E+00   0.00000000000000E+00   0.00000000000000E+00
     -4.44697046579393E-17   3.10000000000000E-01   3.10000000000000E-01   0.00000000000000E+00   0.00000000000000E+00
      1.09270664374298E-11   5.88066463701530E-15   1.09329471020668E-11   1.48492485509016E-17   3.00000000000000E-01
      3.00000000000000E-01   0.00000000000000E+00   0.00000000000000E+00   0.00000000000000E+00   0.00000000000000E+00
      0.00000000000000E+00   4.29618228332940E-17
      3.60000000000000E-01
      0.00000000000000E+00   0.00000000000000E+00   0.00000000000000E+00   0.00000000000000E+00  -2.31243086598685E-13
     -9.79778135387065E-12  -1.00290244404693E-11  -1.33845990359431E-17   1.44000000000000E-01   1.44000000000000E-01
      0.00000000000000E+00   0.00000000000000E+00   0.00000000000000E+00   0.00000000000000E+00   0.00000000000000E+00
     -4.33337150582913E-17   3.10000000000000E-01   3.10000000000000E-01   0.00000000000000E+00   0.00000000000000E+00
      1.00231728375164E-11   5.85160295292645E-15   1.00290244404693E-11   1.48062898516933E-17   3.00000000000000E-01
      3.00000000000000E-01   0.00000000000000E+00   0.00000000000000E+00   0.00000000000000E+00   0.00000000000000E+00
      0.00000000000000E+00   4.19120242425411E-17
      3.70000000000000E-01
      0.00000000000000E+00   0.00000000000000E+00   0.00000000000000E+00   0.00000000000000E+00  -2.32576038665243E-13