DF-ISE text

Info {
  version   = 1.0
  type      = xyplot
  datasets  = [
    "time"
    "source OuterVoltage" "source InnerVoltage" "source QuasiFermiPotential" "source DisplacementCurrent" "source eCurrent"
    "source hCurrent" "source TotalCurrent" "source Charge" "topGate OuterVoltage" "topGate InnerVoltage"
    "topGate QuasiFermiPotential" "topGate DisplacementCurrent" "topGate eCurrent" "topGate hCurrent" "topGate TotalCurrent"
    "topGate Charge" "drain OuterVoltage" "drain InnerVoltage" "drain QuasiFermiPotential" "drain DisplacementCurrent"
    "drain eCurrent" "drain hCurrent" "drain TotalCurrent" "drain Charge" "bottomGate OuterVoltage"
    "bottomGate InnerVoltage" "bottomGate QuasiFermiPotential" "bottomGate DisplacementCurrent" "bottomGate eCurrent" "bottomGate hCurrent"
    "bottomGate TotalCurrent" "bottomGate Charge" ]
  functions = [
    Time
    OuterVoltage InnerVoltage QuasiFermiPotential DisplacementCurrent eCurrent
    hCurrent TotalCurrent Charge OuterVoltage InnerVoltage
    QuasiFermiPotential DisplacementCurrent eCurrent hCurrent TotalCurrent
    Charge OuterVoltage InnerVoltage QuasiFermiPotential DisplacementCurrent
    eCurrent hCurrent TotalCurrent Charge OuterVoltage
    InnerVoltage QuasiFermiPotential DisplacementCurrent eCurrent hCurrent
    TotalCurrent Charge ]
}

Data {
      1.00000000000000E-02
      0.00000000000000E+00   0.00000000000000E+00   0.00000000000000E+00   0.00000000000000E+00  -1.37018482509502E-13
     -1.06482720451883E-12  -1.20184568702834E-12  -1.03153019104347E-17   4.00000000000000E-03   4.00000000000000E-03
      0.00000000000000E+00   0.00000000000000E+00   0.00000000000000E+00   0.00000000000000E+00   0.00000000000000E+00
     -4.38977282318349E-17   8.00000000000000E-02   8.00000000000000E-02   0.00000000000000E+00   0.00000000000000E+00
      1.19748547469788E-12   4.36021233045850E-15   1.20184568702834E-12   1.28650151702912E-17   1.60000000000000E-01
      1.60000000000000E-01   0.00000000000000E+00   0.00000000000000E+00   0.00000000000000E+00   0.00000000000000E+00
      0.00000000000000E+00   4.13480149719784E-17
      2.00000000000000E-02
      0.00000000000000E+00   0.00000000000000E+00   0.00000000000000E+00   0.00000000000000E+00  -1.38120261924465E-13
     -9.34393553452195E-13  -1.07251381537666E-12  -1.03601134585114E-17   8.00000000000000E-03   8.00000000000000E-03
      0.00000000000000E+00   0.00000000000000E+00   0.00000000000000E+00   0.00000000000000E+00   0.00000000000000E+00
     -4.27607370008320E-17   8.00000000000000E-02   8.00000000000000E-02   0.00000000000000E+00   0.00000000000000E+00
      1.06818001038783E-12   4.33380498883397E-15   1.07251381537666E-12   1.28216328090878E-17   1.60000000000000E-01
      1.60000000000000E-01   0.00000000000000E+00   0.00000000000000E+00   0.00000000000000E+00   0.00000000000000E+00
      0.00000000000000E+00   4.02992176502556E-17
      3.00000000000000E-02
      0.00000000000000E+00   0.00000000000000E+00   0.00000000000000E+00   0.00000000000000E+00  -1.39225447494311E-13
     -8.18837418347767E-13  -9.58062865842078E-13  -1.04048822655057E-17   1.20000000000000E-02   1.20000000000000E-02
      0.00000000000000E+00   0.00000000000000E+00   0.00000000000000E+00   0.00000000000000E+00   0.00000000000000E+00
     -4.16237605723833E-17   8.00000000000000E-02   8.00000000000000E-02   0.00000000000000E+00   0.00000000000000E+00
      9.53755431821414E-13   4.30743402066443E-15   9.58062865842078E-13   1.27782372786066E-17   1.60000000000000E-01
      1.60000000000000E-01   0.00000000000000E+00   0.00000000000000E+00   0.00000000000000E+00   0.00000000000000E+00
      0.00000000000000E+00   3.92504055592824E-17
      4.00000000000000E-02
      0.00000000000000E+00   0.00000000000000E+00   0.00000000000000E+00   0.00000000000000E+00  -1.40334008078032E-13
     -7.16629472473010E-13  -8.56963480551041E-13  -1.04496092510476E-17   1.60000000000000E-02   1.60000000000000E-02
      0.00000000000000E+00   0.00000000000000E+00   0.00000000000000E+00   0.00000000000000E+00   0.00000000000000E+00
     -4.04867983384923E-17   8.00000000000000E-02   8.00000000000000E-02   0.00000000000000E+00   0.00000000000000E+00
      8.52682380877786E-13   4.28109967325559E-15   8.56963480551042E-13   1.27348282853912E-17   1.60000000000000E-01
      1.60000000000000E-01   0.00000000000000E+00   0.00000000000000E+00   0.00000000000000E+00   0.00000000000000E+00
      0.00000000000000E+00   3.82015793041487E-17
      5.00000000000000E-02
      0.00000000000000E+00   0.00000000000000E+00   0.00000000000000E+00   0.00000000000000E+00  -1.41445912434473E-13
     -6.26377727781003E-13  -7.67823640215476E-13  -1.04942953133518E-17   2.00000000000000E-02   2.00000000000000E-02
      0.00000000000000E+00   0.00000000000000E+00   0.00000000000000E+00   0.00000000000000E+00   0.00000000000000E+00
     -3.93498497002859E-17   8.00000000000000E-02   8.00000000000000E-02   0.00000000000000E+00   0.00000000000000E+00
      7.63568837769356E-13   4.25480244611978E-15   7.67823640215476E-13   1.26914055325681E-17   1.60000000000000E-01
      1.60000000000000E-01   0.00000000000000E+00   0.00000000000000E+00   0.00000000000000E+00   0.00000000000000E+00
      0.00000000000000E+00   3.71527394810696E-17
      6.00000000000000E-02
      0.00000000000000E+00   0.00000000000000E+00   0.00000000000000E+00   0.00000000000000E+00  -1.42561129256829E-13
     -5.46817290199541E-13  -6.89378419456370E-13  -1.05389413297272E-17   2.40000000000000E-02   2.40000000000000E-02
      0.00000000000000E+00   0.00000000000000E+00   0.00000000000000E+00   0.00000000000000E+00   0.00000000000000E+00
     -3.82129140675850E-17   8.00000000000000E-02   8.00000000000000E-02   0.00000000000000E+00   0.00000000000000E+00
      6.85149876643776E-13   4.22854281259440E-15   6.89378419456370E-13   1.26479687195182E-17   1.60000000000000E-01
      1.60000000000000E-01   0.00000000000000E+00   0.00000000000000E+00   0.00000000000000E+00   0.00000000000000E+00
      0.00000000000000E+00   3.61038866777941E-17
      7.00000000000000E-02
      0.00000000000000E+00   0.00000000000000E+00   0.00000000000000E+00   0.00000000000000E+00  -1.43679627203603E-13
     -4.76800690744249E-13  -6.20480317947853E-13  -1.05835481570756E-17   2.80000000000000E-02   2.80000000000000E-02
      0.00000000000000E+00   0.00000000000000E+00   0.00000000000000E+00   0.00000000000000E+00   0.00000000000000E+00
     -3.70759908584863E-17   8.00000000000000E-02   8.00000000000000E-02   0.00000000000000E+00   0.00000000000000E+00
      6.16277996796130E-13   4.20232115172213E-15   6.20480317947852E-13   1.26045175415588E-17   1.60000000000000E-01
      1.60000000000000E-01   0.00000000000000E+00   0.00000000000000E+00   0.00000000000000E+00   0.00000000000000E+00
      0.00000000000000E+00   3.50550214740031E-17
      8.00000000000000E-02
      0.00000000000000E+00   0.00000000000000E+00   0.00000000000000E+00   0.00000000000000E+00  -1.44801374928581E-13
     -4.15288774921212E-13  -5.60090149849792E-13  -1.06281166323780E-17   3.20000000000000E-02   3.20000000000000E-02
      0.00000000000000E+00   0.00000000000000E+00   0.00000000000000E+00   0.00000000000000E+00   0.00000000000000E+00
     -3.59390794989558E-17   8.00000000000000E-02   8.00000000000000E-02   0.00000000000000E+00   0.00000000000000E+00
      5.55914011791624E-13   4.17613805816831E-15   5.60090149849792E-13   1.25610516896357E-17   1.60000000000000E-01
      1.60000000000000E-01   0.00000000000000E+00   0.00000000000000E+00   0.00000000000000E+00   0.00000000000000E+00
      0.00000000000000E+00   3.40061444416980E-17
      9.00000000000000E-02
      0.00000000000000E+00   0.00000000000000E+00   0.00000000000000E+00   0.00000000000000E+00  -1.45926341103672E-13
     -3.61342131316099E-13  -5.07268472419771E-13  -1.06726475731707E-17   3.60000000000000E-02   3.60000000000000E-02
      0.00000000000000E+00   0.00000000000000E+00   0.00000000000000E+00   0.00000000000000E+00   0.00000000000000E+00
     -3.48021794224330E-17   8.00000000000000E-02   8.00000000000000E-02   0.00000000000000E+00   0.00000000000000E+00
      5.03118478455274E-13   4.14999396449648E-15   5.07268472419771E-13   1.25175708500235E-17   1.60000000000000E-01
      1.60000000000000E-01   0.00000000000000E+00   0.00000000000000E+00   0.00000000000000E+00   0.00000000000000E+00
      0.00000000000000E+00   3.29572561455802E-17
      1.00000000000000E-01
      0.00000000000000E+00   0.00000000000000E+00   0.00000000000000E+00   0.00000000000000E+00  -1.47054494445495E-13
     -3.14113042371709E-13  -4.61167536817204E-13  -1.07171417780105E-17   4.00000000000000E-02   4.00000000000000E-02
      0.00000000000000E+00   0.00000000000000E+00   0.00000000000000E+00   0.00000000000000E+00   0.00000000000000E+00
     -3.36652900694446E-17   8.00000000000000E-02   8.00000000000000E-02   0.00000000000000E+00   0.00000000000000E+00
      4.57043647421213E-13   4.12388939599075E-15   4.61167536817204E-13   1.24740747040329E-17   1.60000000000000E-01
      1.60000000000000E-01   0.00000000000000E+00   0.00000000000000E+00   0.00000000000000E+00   0.00000000000000E+00
      0.00000000000000E+00   3.19083571434223E-17
      1.10000000000000E-01
      0.00000000000000E+00   0.00000000000000E+00   0.00000000000000E+00   0.00000000000000E+00  -1.48185803734095E-13
     -2.72837937763443E-13  -4.21023741497538E-13  -1.07616000269284E-17   4.40000000000000E-02   4.40000000000000E-02
      0.00000000000000E+00   0.00000000000000E+00   0.00000000000000E+00   0.00000000000000E+00   0.00000000000000E+00
     -3.25284108872274E-17   8.00000000000000E-02   8.00000000000000E-02   0.00000000000000E+00   0.00000000000000E+00
      4.16925916686060E-13   4.09782481147786E-15   4.21023741497537E-13   1.24305629277247E-17   1.60000000000000E-01
      1.60000000000000E-01   0.00000000000000E+00   0.00000000000000E+00   0.00000000000000E+00   0.00000000000000E+00
      0.00000000000000E+00   3.08594479864311E-17
      1.20000000000000E-01
      0.00000000000000E+00   0.00000000000000E+00   0.00000000000000E+00   0.00000000000000E+00  -1.49320237831957E-13
     -2.36830332469673E-13  -3.86150570301630E-13  -1.08060230818735E-17   4.80000000000000E-02   4.80000000000000E-02
      0.00000000000000E+00   0.00000000000000E+00   0.00000000000000E+00   0.00000000000000E+00   0.00000000000000E+00
     -3.13915413293600E-17   8.00000000000000E-02   8.00000000000000E-02   0.00000000000000E+00   0.00000000000000E+00
      3.82078769462525E-13   4.07180083910524E-15   3.86150570301630E-13   1.23870351916297E-17   1.60000000000000E-01
      1.60000000000000E-01   0.00000000000000E+00   0.00000000000000E+00   0.00000000000000E+00   0.00000000000000E+00
      0.00000000000000E+00   2.98105292196039E-17
      1.30000000000000E-01
      0.00000000000000E+00   0.00000000000000E+00   0.00000000000000E+00   0.00000000000000E+00  -1.50457765702799E-13
     -2.05474229796030E-13  -3.55931995498829E-13  -1.08504116871469E-17   5.20000000000000E-02   5.20000000000000E-02
      0.00000000000000E+00   0.00000000000000E+00   0.00000000000000E+00   0.00000000000000E+00   0.00000000000000E+00
     -3.02546808554016E-17   8.00000000000000E-02   8.00000000000000E-02   0.00000000000000E+00   0.00000000000000E+00
      3.51886177511579E-13   4.04581798725079E-15   3.55931995498829E-13   1.23434911604714E-17   1.60000000000000E-01
      1.60000000000000E-01   0.00000000000000E+00   0.00000000000000E+00   0.00000000000000E+00   0.00000000000000E+00
      0.00000000000000E+00   2.87616013820770E-17
      1.40000000000000E-01
      0.00000000000000E+00   0.00000000000000E+00   0.00000000000000E+00   0.00000000000000E+00  -1.51598356426602E-13
     -1.78217971612820E-13  -3.29816328039422E-13  -1.08947665698244E-17   5.60000000000000E-02   5.60000000000000E-02
      0.00000000000000E+00   0.00000000000000E+00   0.00000000000000E+00   0.00000000000000E+00   0.00000000000000E+00
     -2.91178289305392E-17   8.00000000000000E-02   8.00000000000000E-02   0.00000000000000E+00   0.00000000000000E+00
      3.25796451079364E-13   4.01987696005780E-15   3.29816328039421E-13   1.22999304928947E-17   1.60000000000000E-01
      1.60000000000000E-01   0.00000000000000E+00   0.00000000000000E+00   0.00000000000000E+00   0.00000000000000E+00
      0.00000000000000E+00   2.77126650074689E-17
      1.50000000000000E-01
      0.00000000000000E+00   0.00000000000000E+00   0.00000000000000E+00   0.00000000000000E+00  -1.52741979211315E-13
     -1.54568515547660E-13  -3.07310494758974E-13  -1.09390884401705E-17   6.00000000000000E-02   6.00000000000000E-02
      0.00000000000000E+00   0.00000000000000E+00   0.00000000000000E+00   0.00000000000000E+00   0.00000000000000E+00
     -2.79809850252408E-17   8.00000000000000E-02   8.00000000000000E-02   0.00000000000000E+00   0.00000000000000E+00
      3.03316516581066E-13   3.99397817790866E-15   3.07310494758974E-13   1.22563528411951E-17   1.60000000000000E-01
      1.60000000000000E-01   0.00000000000000E+00   0.00000000000000E+00   0.00000000000000E+00   0.00000000000000E+00
      0.00000000000000E+00   2.66637206242163E-17
      1.60000000000000E-01
      0.00000000000000E+00   0.00000000000000E+00   0.00000000000000E+00   0.00000000000000E+00  -1.53888603410028E-13
     -1.34086122165427E-13  -2.87974725575454E-13  -1.09833779920424E-17   6.40000000000000E-02   6.40000000000000E-02
      0.00000000000000E+00   0.00000000000000E+00   0.00000000000000E+00   0.00000000000000E+00   0.00000000000000E+00
     -2.68441486149152E-17   8.00000000000000E-02   8.00000000000000E-02   0.00000000000000E+00   0.00000000000000E+00
      2.84006603255980E-13   3.96812231947411E-15   2.87974725575454E-13   1.22127578510516E-17   1.60000000000000E-01
      1.60000000000000E-01   0.00000000000000E+00   0.00000000000000E+00   0.00000000000000E+00   0.00000000000000E+00
      0.00000000000000E+00   2.56147687559059E-17
      1.70000000000000E-01
      0.00000000000000E+00   0.00000000000000E+00   0.00000000000000E+00   0.00000000000000E+00  -1.55038198528409E-13
     -1.16379431607517E-13  -2.71417630135927E-13  -1.10276359032838E-17   6.80000000000000E-02   6.80000000000000E-02
      0.00000000000000E+00   0.00000000000000E+00   0.00000000000000E+00   0.00000000000000E+00   0.00000000000000E+00
     -2.57073191795774E-17   8.00000000000000E-02   8.00000000000000E-02   0.00000000000000E+00   0.00000000000000E+00
      2.67475320129809E-13   3.94231000611795E-15   2.71417630135927E-13   1.21691451612609E-17   1.60000000000000E-01
      1.60000000000000E-01   0.00000000000000E+00   0.00000000000000E+00   0.00000000000000E+00   0.00000000000000E+00
      0.00000000000000E+00   2.45658099216002E-17
      1.80000000000000E-01
      0.00000000000000E+00   0.00000000000000E+00   0.00000000000000E+00   0.00000000000000E+00  -1.56190734237180E-13
     -1.01100912412951E-13  -2.57291646650131E-13  -1.10718628361104E-17   7.20000000000000E-02   7.20000000000000E-02
      0.00000000000000E+00   0.00000000000000E+00   0.00000000000000E+00   0.00000000000000E+00   0.00000000000000E+00
     -2.45704962035200E-17   8.00000000000000E-02   8.00000000000000E-02   0.00000000000000E+00   0.00000000000000E+00
      2.53375104847960E-13   3.91654180217092E-15   2.57291646650131E-13   1.21255144034714E-17   1.60000000000000E-01
      1.60000000000000E-01   0.00000000000000E+00   0.00000000000000E+00   0.00000000000000E+00   0.00000000000000E+00
      0.00000000000000E+00   2.35168446361589E-17
      1.90000000000000E-01
      0.00000000000000E+00   0.00000000000000E+00   0.00000000000000E+00   0.00000000000000E+00  -1.57346180382262E-13
     -8.79426642302139E-14  -2.45288844612476E-13  -1.11160594374858E-17   7.60000000000000E-02   7.60000000000000E-02
      0.00000000000000E+00   0.00000000000000E+00   0.00000000000000E+00   0.00000000000000E+00   0.00000000000000E+00
     -2.34336791749886E-17   8.00000000000000E-02   8.00000000000000E-02   0.00000000000000E+00   0.00000000000000E+00
      2.41398026181118E-13   3.89081843135759E-15   2.45288844612476E-13   1.20818652019184E-17   1.60000000000000E-01
      1.60000000000000E-01   0.00000000000000E+00   0.00000000000000E+00   0.00000000000000E+00   0.00000000000000E+00
      0.00000000000000E+00   2.24678734105560E-17
      2.00000000000000E-01
      0.00000000000000E+00   0.00000000000000E+00   0.00000000000000E+00   0.00000000000000E+00  -1.58504506990399E-13
     -7.66325557828045E-14  -2.35137062773204E-13  -1.11602263394886E-17   8.00000000000000E-02   8.00000000000000E-02
      0.00000000000000E+00   0.00000000000000E+00   0.00000000000000E+00   0.00000000000000E+00   0.00000000000000E+00
     -2.22968675858624E-17   8.00000000000000E-02   8.00000000000000E-02   0.00000000000000E+00   0.00000000000000E+00
      2.31271922330224E-13   3.86514044297937E-15   2.35137062773204E-13   1.20381971731583E-17   1.60000000000000E-01
      1.60000000000000E-01   0.00000000000000E+00   0.00000000000000E+00   0.00000000000000E+00   0.00000000000000E+00
      0.00000000000000E+00   2.14188967521927E-17
      2.10000000000000E-01
      0.00000000000000E+00   0.00000000000000E+00   0.00000000000000E+00   0.00000000000000E+00  -1.59665684280605E-13
     -6.69306818305840E-14  -2.26596366111189E-13  -1.12043641596708E-17   8.40000000000000E-02   8.40000000000000E-02
      0.00000000000000E+00   0.00000000000000E+00   0.00000000000000E+00   0.00000000000000E+00   0.00000000000000E+00
     -2.11600609313386E-17   8.00000000000000E-02   8.00000000000000E-02   0.00000000000000E+00   0.00000000000000E+00
      2.22756857551557E-13   3.83950855963163E-15   2.26596366111189E-13   1.19945099258024E-17   1.60000000000000E-01
      1.60000000000000E-01   0.00000000000000E+00   0.00000000000000E+00   0.00000000000000E+00   0.00000000000000E+00
      0.00000000000000E+00   2.03699151652069E-17
      2.20000000000000E-01
      0.00000000000000E+00   0.00000000000000E+00   0.00000000000000E+00   0.00000000000000E+00  -1.60829682666423E-13
     -5.86261207986863E-14  -2.19455803465110E-13  -1.12484735014073E-17   8.80000000000000E-02   8.80000000000000E-02
      0.00000000000000E+00   0.00000000000000E+00   0.00000000000000E+00   0.00000000000000E+00   0.00000000000000E+00
     -2.00232587096207E-17   8.00000000000000E-02   8.00000000000000E-02   0.00000000000000E+00   0.00000000000000E+00
      2.15641880037148E-13   3.81392342796172E-15   2.19455803465110E-13   1.19508030602482E-17   1.60000000000000E-01
      1.60000000000000E-01   0.00000000000000E+00   0.00000000000000E+00   0.00000000000000E+00   0.00000000000000E+00
      0.00000000000000E+00   1.93209291507797E-17
      2.30000000000000E-01
      0.00000000000000E+00   0.00000000000000E+00   0.00000000000000E+00   0.00000000000000E+00  -1.61996472766664E-13
     -5.15339774072629E-14  -2.13530450173927E-13  -1.12925549542380E-17   9.20000000000000E-02   9.20000000000000E-02
      0.00000000000000E+00   0.00000000000000E+00   0.00000000000000E+00   0.00000000000000E+00   0.00000000000000E+00
     -1.88864604216099E-17   8.00000000000000E-02   8.00000000000000E-02   0.00000000000000E+00   0.00000000000000E+00
      2.09742064515766E-13   3.78838565816156E-15   2.13530450173927E-13   1.19070761684099E-17   1.60000000000000E-01
      1.60000000000000E-01   0.00000000000000E+00   0.00000000000000E+00   0.00000000000000E+00   0.00000000000000E+00
      0.00000000000000E+00   1.82719392074380E-17
      2.40000000000000E-01
      0.00000000000000E+00   0.00000000000000E+00   0.00000000000000E+00   0.00000000000000E+00  -1.63166025409596E-13
     -4.54926941548251E-14  -2.08658719564421E-13  -1.13366090942005E-17   9.60000000000000E-02   9.60000000000000E-02
      0.00000000000000E+00   0.00000000000000E+00   0.00000000000000E+00   0.00000000000000E+00   0.00000000000000E+00
     -1.77496655706000E-17   8.00000000000000E-02   8.00000000000000E-02   0.00000000000000E+00   0.00000000000000E+00
      2.04895823559813E-13   3.76289600460829E-15   2.08658719564421E-13   1.18633288334453E-17   1.60000000000000E-01
      1.60000000000000E-01   0.00000000000000E+00   0.00000000000000E+00   0.00000000000000E+00   0.00000000000000E+00
      0.00000000000000E+00   1.72229458313551E-17
      2.50000000000000E-01
      0.00000000000000E+00   0.00000000000000E+00   0.00000000000000E+00   0.00000000000000E+00  -1.64338311634525E-13
     -4.03616156563830E-14  -2.04699927290908E-13  -1.13806364841558E-17   1.00000000000000E-01   1.00000000000000E-01
      0.00000000000000E+00   0.00000000000000E+00   0.00000000000000E+00   0.00000000000000E+00   0.00000000000000E+00
     -1.66128736619740E-17   8.00000000000000E-02   8.00000000000000E-02   0.00000000000000E+00   0.00000000000000E+00
      2.00962472208492E-13   3.73745508241614E-15   2.04699927290908E-13   1.18195606294804E-17   1.60000000000000E-01
      1.60000000000000E-01   0.00000000000000E+00   0.00000000000000E+00   0.00000000000000E+00   0.00000000000000E+00
      0.00000000000000E+00   1.61739495166494E-17
      2.60000000000000E-01
      0.00000000000000E+00   0.00000000000000E+00   0.00000000000000E+00   0.00000000000000E+00  -1.65513302702110E-13
     -3.60187920878902E-14  -2.01532094790000E-13  -1.14246376741055E-17   1.04000000000000E-01   1.04000000000000E-01
      0.00000000000000E+00   0.00000000000000E+00   0.00000000000000E+00   0.00000000000000E+00   0.00000000000000E+00
     -1.54760842029045E-17   8.00000000000000E-02   8.00000000000000E-02   0.00000000000000E+00   0.00000000000000E+00
      1.97820031181835E-13   3.71206360816454E-15   2.01532094790000E-13   1.17757711213301E-17   1.60000000000000E-01
      1.60000000000000E-01   0.00000000000000E+00   0.00000000000000E+00   0.00000000000000E+00   0.00000000000000E+00
      0.00000000000000E+00   1.51249507556799E-17
      2.70000000000000E-01
      0.00000000000000E+00   0.00000000000000E+00   0.00000000000000E+00   0.00000000000000E+00  -1.66690970093434E-13
     -3.23590067858195E-14  -1.99049976879253E-13  -1.14686132015020E-17   1.08000000000000E-01   1.08000000000000E-01
      0.00000000000000E+00   0.00000000000000E+00   0.00000000000000E+00   0.00000000000000E+00   0.00000000000000E+00
     -1.43392967020542E-17   8.00000000000000E-02   8.00000000000000E-02   0.00000000000000E+00   0.00000000000000E+00
      1.95363254633634E-13   3.68672224561940E-15   1.99049976879253E-13   1.17319598642155E-17   1.60000000000000E-01
      1.60000000000000E-01   0.00000000000000E+00   0.00000000000000E+00   0.00000000000000E+00   0.00000000000000E+00
      0.00000000000000E+00   1.40759500393407E-17
      2.80000000000000E-01
      0.00000000000000E+00   0.00000000000000E+00   0.00000000000000E+00   0.00000000000000E+00  -1.67871285516731E-13
     -2.92920153430579E-14  -1.97163300859789E-13  -1.15125635915506E-17   1.12000000000000E-01   1.12000000000000E-01
      0.00000000000000E+00   0.00000000000000E+00   0.00000000000000E+00   0.00000000000000E+00   0.00000000000000E+00
     -1.32025106692800E-17   8.00000000000000E-02   8.00000000000000E-02   0.00000000000000E+00   0.00000000000000E+00
      1.93501869179800E-13   3.66143167998878E-15   1.97163300859789E-13   1.16881264034764E-17   1.60000000000000E-01
      1.60000000000000E-01   0.00000000000000E+00   0.00000000000000E+00   0.00000000000000E+00   0.00000000000000E+00
      0.00000000000000E+00   1.30269478573543E-17
      2.90000000000000E-01
      0.00000000000000E+00   0.00000000000000E+00   0.00000000000000E+00   0.00000000000000E+00  -1.69054220907695E-13
     -2.67409833980990E-14  -1.95795204305794E-13  -1.15564893575044E-17   1.16000000000000E-01   1.16000000000000E-01
      0.00000000000000E+00   0.00000000000000E+00   0.00000000000000E+00   0.00000000000000E+00   0.00000000000000E+00
     -1.20657256153371E-17   8.00000000000000E-02   8.00000000000000E-02   0.00000000000000E+00   0.00000000000000E+00
      1.92159011696905E-13   3.63619260888936E-15   1.95795204305794E-13   1.16442702742789E-17   1.60000000000000E-01
      1.60000000000000E-01   0.00000000000000E+00   0.00000000000000E+00   0.00000000000000E+00   0.00000000000000E+00
      0.00000000000000E+00   1.19779446985626E-17
      3.00000000000000E-01
      0.00000000000000E+00   0.00000000000000E+00   0.00000000000000E+00   0.00000000000000E+00  -1.70239748435053E-13
     -2.46411115179077E-14  -1.94880859952961E-13  -1.16003910009527E-17   1.20000000000000E-01   1.20000000000000E-01
      0.00000000000000E+00   0.00000000000000E+00   0.00000000000000E+00   0.00000000000000E+00   0.00000000000000E+00
     -1.09289410515845E-17   8.00000000000000E-02   8.00000000000000E-02   0.00000000000000E+00   0.00000000000000E+00
      1.91269854240479E-13   3.61100571248142E-15   1.94880859952961E-13   1.16003910013188E-17   1.60000000000000E-01
      1.60000000000000E-01   0.00000000000000E+00   0.00000000000000E+00   0.00000000000000E+00   0.00000000000000E+00
      0.00000000000000E+00   1.09289410512184E-17
      3.10000000000000E-01
      0.00000000000000E+00   0.00000000000000E+00   0.00000000000000E+00   0.00000000000000E+00  -1.71427840503118E-13
     -2.29384364752262E-14  -1.94366276978344E-13  -1.16442690121015E-17   1.24000000000000E-01   1.24000000000000E-01
      0.00000000000000E+00   0.00000000000000E+00   0.00000000000000E+00   0.00000000000000E+00   0.00000000000000E+00
     -9.79215648969150E-18   8.00000000000000E-02   8.00000000000000E-02   0.00000000000000E+00   0.00000000000000E+00
      1.90780405275982E-13   3.58587170236183E-15   1.94366276978344E-13   1.15564880985179E-17   1.60000000000000E-01
      1.60000000000000E-01   0.00000000000000E+00   0.00000000000000E+00   0.00000000000000E+00   0.00000000000000E+00
      0.00000000000000E+00   9.87993740327514E-18
      3.20000000000000E-01
      0.00000000000000E+00   0.00000000000000E+00   0.00000000000000E+00   0.00000000000000E+00  -1.72618469746404E-13
     -2.15887988014183E-14  -1.94207268547822E-13  -1.16881238700476E-17   1.28000000000000E-01   1.28000000000000E-01
      0.00000000000000E+00   0.00000000000000E+00   0.00000000000000E+00   0.00000000000000E+00   0.00000000000000E+00
     -8.65537144134463E-18   8.00000000000000E-02   8.00000000000000E-02   0.00000000000000E+00   0.00000000000000E+00
      1.90646477312150E-13   3.56079123567160E-15   1.94207268547822E-13   1.15125610687156E-17   1.60000000000000E-01
      1.60000000000000E-01   0.00000000000000E+00   0.00000000000000E+00   0.00000000000000E+00   0.00000000000000E+00
      0.00000000000000E+00   8.83093424267666E-18
      3.30000000000000E-01
      0.00000000000000E+00   0.00000000000000E+00   0.00000000000000E+00   0.00000000000000E+00  -1.73811609045464E-13
     -2.05569679805149E-14  -1.94368577025979E-13  -1.17319560430463E-17   1.32000000000000E-01   1.32000000000000E-01
      0.00000000000000E+00   0.00000000000000E+00   0.00000000000000E+00   0.00000000000000E+00   0.00000000000000E+00
     -7.51858541795421E-18   8.00000000000000E-02   8.00000000000000E-02   0.00000000000000E+00   0.00000000000000E+00
      1.90832811980043E-13   3.53576504593597E-15   1.94368577025979E-13   1.14686094033533E-17   1.60000000000000E-01
      1.60000000000000E-01   0.00000000000000E+00   0.00000000000000E+00   0.00000000000000E+00   0.00000000000000E+00
      0.00000000000000E+00   7.78193205764721E-18
      3.40000000000000E-01
      0.00000000000000E+00   0.00000000000000E+00   0.00000000000000E+00   0.00000000000000E+00  -1.75007231514608E-13
     -1.98159167398350E-14  -1.94823148254443E-13  -1.17757659887718E-17   1.36000000000000E-01   1.36000000000000E-01
      0.00000000000000E+00   0.00000000000000E+00   0.00000000000000E+00   0.00000000000000E+00   0.00000000000000E+00
     -6.38179793036133E-18   8.00000000000000E-02   8.00000000000000E-02   0.00000000000000E+00   0.00000000000000E+00
      1.91312354463880E-13   3.51079379056370E-15   1.94823148254444E-13   1.14246325821520E-17   1.60000000000000E-01
      1.60000000000000E-01   0.00000000000000E+00   0.00000000000000E+00   0.00000000000000E+00   0.00000000000000E+00
      0.00000000000000E+00   6.73293133698111E-18
      3.50000000000000E-01
      0.00000000000000E+00   0.00000000000000E+00   0.00000000000000E+00   0.00000000000000E+00  -1.76205310513537E-13
     -1.93462379185410E-14  -1.95551548432078E-13  -1.18195541545722E-17   1.40000000000000E-01   1.40000000000000E-01
      0.00000000000000E+00   0.00000000000000E+00   0.00000000000000E+00   0.00000000000000E+00   0.00000000000000E+00
     -5.24500848854404E-18   8.00000000000000E-02   8.00000000000000E-02   0.00000000000000E+00   0.00000000000000E+00
      1.92065670249914E-13   3.48587818216372E-15   1.95551548432078E-13   1.13806300727830E-17   1.60000000000000E-01
      1.60000000000000E-01   0.00000000000000E+00   0.00000000000000E+00   0.00000000000000E+00   0.00000000000000E+00
      0.00000000000000E+00   5.68393257033319E-18
      3.60000000000000E-01
      0.00000000000000E+00   0.00000000000000E+00   0.00000000000000E+00   0.00000000000000E+00  -1.77405819637992E-13
     -1.91356972838513E-14  -1.96541516921843E-13  -1.18633209777174E-17   1.44000000000000E-01   1.44000000000000E-01
      0.00000000000000E+00   0.00000000000000E+00   0.00000000000000E+00   0.00000000000000E+00   0.00000000000000E+00
     -4.10821660132296E-18   8.00000000000000E-02   8.00000000000000E-02   0.00000000000000E+00   0.00000000000000E+00
      1.93080498034442E-13   3.46101888740051E-15   1.96541516921843E-13   1.13366013305306E-17   1.60000000000000E-01
      1.60000000000000E-01   0.00000000000000E+00   0.00000000000000E+00   0.00000000000000E+00   0.00000000000000E+00
      0.00000000000000E+00   4.63493624850983E-18
      3.70000000000000E-01
      0.00000000000000E+00   0.00000000000000E+00   0.00000000000000E+00   0.00000000000000E+00  -1.78608732731842E-13