DF-ISE text

Info {
  version   = 1.0
  type      = xyplot
  datasets  = [
    "time"
    "source OuterVoltage" "source InnerVoltage" "source QuasiFermiPotential" "source DisplacementCurrent" "source eCurrent"
    "source hCurrent" "source TotalCurrent" "source Charge" "topGate OuterVoltage" "topGate InnerVoltage"
    "topGate QuasiFermiPotential" "topGate DisplacementCurrent" "topGate eCurrent" "topGate hCurrent" "topGate TotalCurrent"
    "topGate Charge" "drain OuterVoltage" "drain InnerVoltage" "drain QuasiFermiPotential" "drain DisplacementCurrent"
    "drain eCurrent" "drain hCurrent" "drain TotalCurrent" "drain Charge" "bottomGate OuterVoltage"
    "bottomGate InnerVoltage" "bottomGate QuasiFermiPotential" "bottomGate DisplacementCurrent" "bottomGate eCurrent" "bottomGate hCurrent"
    "bottomGate TotalCurrent" "bottomGate Charge" ]
  functions = [
    Time
    OuterVoltage InnerVoltage QuasiFermiPotential DisplacementCurrent eCurrent
    hCurrent TotalCurrent Charge OuterVoltage InnerVoltage
    QuasiFermiPotential DisplacementCurrent eCurrent hCurrent TotalCurrent
    Charge OuterVoltage InnerVoltage QuasiFermiPotential DisplacementCurrent
    eCurrent hCurrent TotalCurrent Charge OuterVoltage
    InnerVoltage QuasiFermiPotential DisplacementCurrent eCurrent hCurrent
    TotalCurrent Charge ]
}

Data {
      1.00000000000000E-02
      0.00000000000000E+00   0.00000000000000E+00   0.00000000000000E+00   0.00000000000000E+00  -2.17928985639636E-13
     -1.75132554811978E-10  -1.75350483797617E-10  -1.29517253702420E-17   4.00000000000000E-03   4.00000000000000E-03
      0.00000000000000E+00   0.00000000000000E+00   0.00000000000000E+00   0.00000000000000E+00   0.00000000000000E+00
     -1.08477752591320E-16   2.30000000000000E-01   2.30000000000000E-01   0.00000000000000E+00   0.00000000000000E+00
      1.75345528633258E-10   4.95516435965659E-15   1.75350483797617E-10   1.35141995141125E-17   4.00000000000000E-01
      4.00000000000000E-01   0.00000000000000E+00   0.00000000000000E+00   0.00000000000000E+00   0.00000000000000E+00
      0.00000000000000E+00   1.07915278447449E-16
      2.00000000000000E-02
      0.00000000000000E+00   0.00000000000000E+00   0.00000000000000E+00   0.00000000000000E+00  -2.19248060245656E-13
     -1.65052985117788E-10  -1.65272233178033E-10  -1.29950629094562E-17   8.00000000000000E-03   8.00000000000000E-03
      0.00000000000000E+00   0.00000000000000E+00   0.00000000000000E+00   0.00000000000000E+00   0.00000000000000E+00
     -1.07341589032569E-16   2.30000000000000E-01   2.30000000000000E-01   0.00000000000000E+00   0.00000000000000E+00
      1.65267306082406E-10   4.92709562713316E-15   1.65272233178033E-10   1.34709981636384E-17   4.00000000000000E-01
      4.00000000000000E-01   0.00000000000000E+00   0.00000000000000E+00   0.00000000000000E+00   0.00000000000000E+00
      0.00000000000000E+00   1.06865653778387E-16
      3.00000000000000E-02
      0.00000000000000E+00   0.00000000000000E+00   0.00000000000000E+00   0.00000000000000E+00  -2.20568668271677E-13
     -1.55580864223774E-10  -1.55801432892046E-10  -1.30383878632229E-17   1.20000000000000E-02   1.20000000000000E-02
      0.00000000000000E+00   0.00000000000000E+00   0.00000000000000E+00   0.00000000000000E+00   0.00000000000000E+00
     -1.06205426650348E-16   2.30000000000000E-01   2.30000000000000E-01   0.00000000000000E+00   0.00000000000000E+00
      1.55796533802346E-10   4.89908969982008E-15   1.55801432892046E-10   1.34277865770577E-17   4.00000000000000E-01
      4.00000000000000E-01   0.00000000000000E+00   0.00000000000000E+00   0.00000000000000E+00   0.00000000000000E+00
      0.00000000000000E+00   1.05816027936513E-16
      4.00000000000000E-02
      0.00000000000000E+00   0.00000000000000E+00   0.00000000000000E+00   0.00000000000000E+00  -2.21890818496343E-13
     -1.46682721686075E-10  -1.46904612504571E-10  -1.30817004664146E-17   1.60000000000000E-02   1.60000000000000E-02
      0.00000000000000E+00   0.00000000000000E+00   0.00000000000000E+00   0.00000000000000E+00   0.00000000000000E+00
     -1.05069265231396E-16   2.30000000000000E-01   2.30000000000000E-01   0.00000000000000E+00   0.00000000000000E+00
      1.46899741357706E-10   4.87114686494062E-15   1.46904612504571E-10   1.33845645629582E-17   4.00000000000000E-01
      4.00000000000000E-01   0.00000000000000E+00   0.00000000000000E+00   0.00000000000000E+00   0.00000000000000E+00
      0.00000000000000E+00   1.04766401134853E-16
      5.00000000000000E-02
      0.00000000000000E+00   0.00000000000000E+00   0.00000000000000E+00   0.00000000000000E+00  -2.23214517540660E-13
     -1.38326648602687E-10  -1.38549863120228E-10  -1.31250009488858E-17   2.00000000000000E-02   2.00000000000000E-02
      0.00000000000000E+00   0.00000000000000E+00   0.00000000000000E+00   0.00000000000000E+00   0.00000000000000E+00
     -1.03933104562987E-16   2.30000000000000E-01   2.30000000000000E-01   0.00000000000000E+00   0.00000000000000E+00
      1.38545019852894E-10   4.84326733344333E-15   1.38549863120228E-10   1.33413319259585E-17   4.00000000000000E-01
      4.00000000000000E-01   0.00000000000000E+00   0.00000000000000E+00   0.00000000000000E+00   0.00000000000000E+00
      0.00000000000000E+00   1.03716773585915E-16
      6.00000000000000E-02
      0.00000000000000E+00   0.00000000000000E+00   0.00000000000000E+00   0.00000000000000E+00  -2.24539770059971E-13
     -1.30482239007085E-10  -1.30706778777145E-10  -1.31682895355902E-17   2.40000000000000E-02   2.40000000000000E-02
      0.00000000000000E+00   0.00000000000000E+00   0.00000000000000E+00   0.00000000000000E+00   0.00000000000000E+00
     -1.02796944432816E-16   2.30000000000000E-01   2.30000000000000E-01   0.00000000000000E+00   0.00000000000000E+00
      1.30701963325912E-10   4.81545123293424E-15   1.30706778777145E-10   1.32980884666046E-17   4.00000000000000E-01
      4.00000000000000E-01   0.00000000000000E+00   0.00000000000000E+00   0.00000000000000E+00   0.00000000000000E+00
      0.00000000000000E+00   1.02667145501801E-16
      7.00000000000000E-02
      0.00000000000000E+00   0.00000000000000E+00   0.00000000000000E+00   0.00000000000000E+00  -2.25866578917052E-13
     -1.23120533305592E-10  -1.23346399884509E-10  -1.32115664466954E-17   2.80000000000000E-02   2.80000000000000E-02
      0.00000000000000E+00   0.00000000000000E+00   0.00000000000000E+00   0.00000000000000E+00   0.00000000000000E+00
     -1.01660784628889E-16   2.30000000000000E-01   2.30000000000000E-01   0.00000000000000E+00   0.00000000000000E+00
      1.23341612185901E-10   4.78769860858816E-15   1.23346399884509E-10   1.32548339812660E-17   4.00000000000000E-01
      4.00000000000000E-01   0.00000000000000E+00   0.00000000000000E+00   0.00000000000000E+00   0.00000000000000E+00
      0.00000000000000E+00   1.01617517094318E-16
      8.00000000000000E-02
      0.00000000000000E+00   0.00000000000000E+00   0.00000000000000E+00   0.00000000000000E+00  -2.27194945347221E-13
     -1.16213963633700E-10  -1.16441158579047E-10  -1.32548318976949E-17   3.20000000000000E-02   3.20000000000000E-02
      0.00000000000000E+00   0.00000000000000E+00   0.00000000000000E+00   0.00000000000000E+00   0.00000000000000E+00
     -1.00524624939414E-16   2.30000000000000E-01   2.30000000000000E-01   0.00000000000000E+00   0.00000000000000E+00
      1.16436398569629E-10   4.76000941853805E-15   1.16441158579047E-10   1.32115682620277E-17   4.00000000000000E-01
      4.00000000000000E-01   0.00000000000000E+00   0.00000000000000E+00   0.00000000000000E+00   0.00000000000000E+00
      0.00000000000000E+00   1.00567888575081E-16
      9.00000000000000E-02
      0.00000000000000E+00   0.00000000000000E+00   0.00000000000000E+00   0.00000000000000E+00  -2.28524869101553E-13
     -1.09736301018160E-10  -1.09964825887261E-10  -1.32980860995170E-17   3.60000000000000E-02   3.60000000000000E-02
      0.00000000000000E+00   0.00000000000000E+00   0.00000000000000E+00   0.00000000000000E+00   0.00000000000000E+00
     -9.93884651526940E-17   2.30000000000000E-01   2.30000000000000E-01   0.00000000000000E+00   0.00000000000000E+00
      1.09960093503723E-10   4.73238353880971E-15   1.09964825887261E-10   1.31682910965816E-17   4.00000000000000E-01
      4.00000000000000E-01   0.00000000000000E+00   0.00000000000000E+00   0.00000000000000E+00   0.00000000000000E+00
      0.00000000000000E+00   9.95182601556293E-17
      1.00000000000000E-01
      0.00000000000000E+00   0.00000000000000E+00   0.00000000000000E+00   0.00000000000000E+00  -2.29856348584842E-13
     -1.03662604242540E-10  -1.03892460591125E-10  -1.33413292586310E-17   4.00000000000000E-02   4.00000000000000E-02
      0.00000000000000E+00   0.00000000000000E+00   0.00000000000000E+00   0.00000000000000E+00   0.00000000000000E+00
     -9.82523050570119E-17   2.30000000000000E-01   2.30000000000000E-01   0.00000000000000E+00   0.00000000000000E+00
      1.03887755770361E-10   4.70482076382801E-15   1.03892460591125E-10   1.31250022681143E-17   4.00000000000000E-01
      4.00000000000000E-01   0.00000000000000E+00   0.00000000000000E+00   0.00000000000000E+00   0.00000000000000E+00
      0.00000000000000E+00   9.84686320475287E-17
      1.10000000000000E-01
      0.00000000000000E+00   0.00000000000000E+00   0.00000000000000E+00   0.00000000000000E+00  -2.31189380979158E-13
     -9.79691703241163E-11  -9.82003597050955E-11  -1.33845615771515E-17   4.40000000000000E-02   4.40000000000000E-02
      0.00000000000000E+00   0.00000000000000E+00   0.00000000000000E+00   0.00000000000000E+00   0.00000000000000E+00
     -9.71161444405261E-17   2.30000000000000E-01   2.30000000000000E-01   0.00000000000000E+00   0.00000000000000E+00
      9.81956823842907E-11   4.67732080482384E-15   9.82003597050955E-11   1.30817015551929E-17   4.00000000000000E-01
      4.00000000000000E-01   0.00000000000000E+00   0.00000000000000E+00   0.00000000000000E+00   0.00000000000000E+00
      0.00000000000000E+00   9.74190044624846E-17
      1.20000000000000E-01
      0.00000000000000E+00   0.00000000000000E+00   0.00000000000000E+00   0.00000000000000E+00  -2.32523962357339E-13
     -9.26334865194265E-11  -9.28660104817838E-11  -1.34277832529386E-17   4.80000000000000E-02   4.80000000000000E-02
      0.00000000000000E+00   0.00000000000000E+00   0.00000000000000E+00   0.00000000000000E+00   0.00000000000000E+00
     -9.59799830911585E-17   2.30000000000000E-01   2.30000000000000E-01   0.00000000000000E+00   0.00000000000000E+00
      9.28613605984900E-11   4.64988329393838E-15   9.28660104817839E-11   1.30383887316486E-17   4.00000000000000E-01
      4.00000000000000E-01   0.00000000000000E+00   0.00000000000000E+00   0.00000000000000E+00   0.00000000000000E+00
      0.00000000000000E+00   9.63693776124485E-17
      1.30000000000000E-01
      0.00000000000000E+00   0.00000000000000E+00   0.00000000000000E+00   0.00000000000000E+00  -2.33860087788519E-13
     -8.76341837845465E-11  -8.78680438723350E-11  -1.34709944796976E-17   5.20000000000000E-02   5.20000000000000E-02
      0.00000000000000E+00   0.00000000000000E+00   0.00000000000000E+00   0.00000000000000E+00   0.00000000000000E+00
     -9.48438207964867E-17   2.30000000000000E-01   2.30000000000000E-01   0.00000000000000E+00   0.00000000000000E+00
      8.78634213645493E-11   4.62250778573526E-15   8.78680438723350E-11   1.29950635664568E-17   4.00000000000000E-01
      4.00000000000000E-01   0.00000000000000E+00   0.00000000000000E+00   0.00000000000000E+00   0.00000000000000E+00
      0.00000000000000E+00   9.53197517097275E-17
      1.40000000000000E-01
      0.00000000000000E+00   0.00000000000000E+00   0.00000000000000E+00   0.00000000000000E+00  -2.35197751432315E-13
     -8.29509916241626E-11  -8.31861893755949E-11  -1.35141954470744E-17   5.60000000000000E-02   5.60000000000000E-02
      0.00000000000000E+00   0.00000000000000E+00   0.00000000000000E+00   0.00000000000000E+00   0.00000000000000E+00
     -9.37076573436333E-17   2.30000000000000E-01   2.30000000000000E-01   0.00000000000000E+00   0.00000000000000E+00
      8.31815941818376E-11   4.59519375730185E-15   8.31861893755949E-11   1.29517258236149E-17   4.00000000000000E-01
      4.00000000000000E-01   0.00000000000000E+00   0.00000000000000E+00   0.00000000000000E+00   0.00000000000000E+00
      0.00000000000000E+00   9.42701269670927E-17
      1.50000000000000E-01
      0.00000000000000E+00   0.00000000000000E+00   0.00000000000000E+00   0.00000000000000E+00  -2.36536946628005E-13
     -7.85646942708866E-11  -7.88012312175146E-11  -1.35573863407498E-17   6.00000000000000E-02   6.00000000000000E-02
      0.00000000000000E+00   0.00000000000000E+00   0.00000000000000E+00   0.00000000000000E+00   0.00000000000000E+00
     -9.25714925191570E-17   2.30000000000000E-01   2.30000000000000E-01   0.00000000000000E+00   0.00000000000000E+00
      7.87966632768996E-11   4.56794061500988E-15   7.88012312175146E-11   1.29083752620175E-17   4.00000000000000E-01
      4.00000000000000E-01   0.00000000000000E+00   0.00000000000000E+00   0.00000000000000E+00   0.00000000000000E+00
      0.00000000000000E+00   9.32205035978893E-17
      1.60000000000000E-01
      0.00000000000000E+00   0.00000000000000E+00   0.00000000000000E+00   0.00000000000000E+00  -2.37877665974858E-13
     -7.44570881429171E-11  -7.46949658088920E-11  -1.36005673425308E-17   6.40000000000000E-02   6.40000000000000E-02
      0.00000000000000E+00   0.00000000000000E+00   0.00000000000000E+00   0.00000000000000E+00   0.00000000000000E+00
     -9.14353261089421E-17   2.30000000000000E-01   2.30000000000000E-01   0.00000000000000E+00   0.00000000000000E+00
      7.46904250611997E-11   4.54074769234185E-15   7.46949658088920E-11   1.28650116353279E-17   4.00000000000000E-01
      4.00000000000000E-01   0.00000000000000E+00   0.00000000000000E+00   0.00000000000000E+00   0.00000000000000E+00
      0.00000000000000E+00   9.21708818161451E-17
      1.70000000000000E-01
      0.00000000000000E+00   0.00000000000000E+00   0.00000000000000E+00   0.00000000000000E+00  -2.39219901404768E-13
     -7.06109405342165E-11  -7.08501604356213E-11  -1.36437386304401E-17   6.80000000000000E-02   6.80000000000000E-02
      0.00000000000000E+00   0.00000000000000E+00   0.00000000000000E+00   0.00000000000000E+00   0.00000000000000E+00
     -9.02991578980884E-17   2.30000000000000E-01   2.30000000000000E-01   0.00000000000000E+00   0.00000000000000E+00
      7.08456468213623E-11   4.51361425897382E-15   7.08501604356213E-11   1.28216346918470E-17   4.00000000000000E-01
      4.00000000000000E-01   0.00000000000000E+00   0.00000000000000E+00   0.00000000000000E+00   0.00000000000000E+00
      0.00000000000000E+00   9.11212618366815E-17
      1.80000000000000E-01
      0.00000000000000E+00   0.00000000000000E+00   0.00000000000000E+00   0.00000000000000E+00  -2.40563644251545E-13
     -6.70099494967709E-11  -6.72505131410224E-11  -1.36869003788029E-17   7.20000000000000E-02   7.20000000000000E-02
      0.00000000000000E+00   0.00000000000000E+00   0.00000000000000E+00   0.00000000000000E+00   0.00000000000000E+00
     -8.91629876707997E-17   2.30000000000000E-01   2.30000000000000E-01   0.00000000000000E+00   0.00000000000000E+00
      6.72460266014999E-11   4.48653952255091E-15   6.72505131410224E-11   1.27782441743793E-17   4.00000000000000E-01
      4.00000000000000E-01   0.00000000000000E+00   0.00000000000000E+00   0.00000000000000E+00   0.00000000000000E+00
      0.00000000000000E+00   9.00716438752234E-17
      1.90000000000000E-01
      0.00000000000000E+00   0.00000000000000E+00   0.00000000000000E+00   0.00000000000000E+00  -2.41908885311288E-13
     -6.36387048793818E-11  -6.38806137646931E-11  -1.37300527583322E-17   7.60000000000000E-02   7.60000000000000E-02
      0.00000000000000E+00   0.00000000000000E+00   0.00000000000000E+00   0.00000000000000E+00   0.00000000000000E+00
     -8.80268152102727E-17   2.30000000000000E-01   2.30000000000000E-01   0.00000000000000E+00   0.00000000000000E+00
      6.38761542420601E-11   4.45952263296708E-15   6.38806137646931E-11   1.27348398200947E-17   4.00000000000000E-01
      4.00000000000000E-01   0.00000000000000E+00   0.00000000000000E+00   0.00000000000000E+00   0.00000000000000E+00
      0.00000000000000E+00   8.90220281485103E-17
      2.00000000000000E-01
      0.00000000000000E+00   0.00000000000000E+00   0.00000000000000E+00   0.00000000000000E+00  -2.43255614899752E-13
     -6.04826504917162E-11  -6.07259061066160E-11  -1.37731959362111E-17   8.00000000000000E-02   8.00000000000000E-02
      0.00000000000000E+00   0.00000000000000E+00   0.00000000000000E+00   0.00000000000000E+00   0.00000000000000E+00
     -8.68906402985852E-17   2.30000000000000E-01   2.30000000000000E-01   0.00000000000000E+00   0.00000000000000E+00
      6.07214735439285E-11   4.43256268742304E-15   6.07259061066159E-11   1.26914213603879E-17   4.00000000000000E-01
      4.00000000000000E-01   0.00000000000000E+00   0.00000000000000E+00   0.00000000000000E+00   0.00000000000000E+00
      0.00000000000000E+00   8.79724148744084E-17
      2.10000000000000E-01
      0.00000000000000E+00   0.00000000000000E+00   0.00000000000000E+00   0.00000000000000E+00  -2.44603822904348E-13
     -5.75280473661292E-11  -5.77726511890336E-11  -1.38163300761744E-17   8.40000000000000E-02   8.40000000000000E-02
      0.00000000000000E+00   0.00000000000000E+00   0.00000000000000E+00   0.00000000000000E+00   0.00000000000000E+00
     -8.57544627165825E-17   2.30000000000000E-01   2.30000000000000E-01   0.00000000000000E+00   0.00000000000000E+00
      5.77682455302971E-11   4.40565873648320E-15   5.77726511890336E-11   1.26479885207340E-17   4.00000000000000E-01
      4.00000000000000E-01   0.00000000000000E+00   0.00000000000000E+00   0.00000000000000E+00   0.00000000000000E+00
      0.00000000000000E+00   8.69228042720229E-17
      2.20000000000000E-01
      0.00000000000000E+00   0.00000000000000E+00   0.00000000000000E+00   0.00000000000000E+00  -2.45953498830491E-13
     -5.47619380930820E-11  -5.50078915919125E-11  -1.38594553385865E-17   8.80000000000000E-02   8.80000000000000E-02
      0.00000000000000E+00   0.00000000000000E+00   0.00000000000000E+00   0.00000000000000E+00   0.00000000000000E+00
     -8.46182822437644E-17   2.30000000000000E-01   2.30000000000000E-01   0.00000000000000E+00   0.00000000000000E+00
      5.50035127821237E-11   4.37880978877403E-15   5.50078915919125E-11   1.26045410205398E-17   4.00000000000000E-01
      4.00000000000000E-01   0.00000000000000E+00   0.00000000000000E+00   0.00000000000000E+00   0.00000000000000E+00
      0.00000000000000E+00   8.58731965618111E-17
      2.30000000000000E-01
      0.00000000000000E+00   0.00000000000000E+00   0.00000000000000E+00   0.00000000000000E+00  -2.47304631845858E-13
     -5.21721122088304E-11  -5.24194168406762E-11  -1.39025718805192E-17   9.20000000000000E-02   9.20000000000000E-02
      0.00000000000000E+00   0.00000000000000E+00   0.00000000000000E+00   0.00000000000000E+00   0.00000000000000E+00
     -8.34820986581704E-17   2.30000000000000E-01   2.30000000000000E-01   0.00000000000000E+00   0.00000000000000E+00
      5.24150648258579E-11   4.35201481826121E-15   5.24194168406762E-11   1.25610785729927E-17   4.00000000000000E-01
      4.00000000000000E-01   0.00000000000000E+00   0.00000000000000E+00   0.00000000000000E+00   0.00000000000000E+00
      0.00000000000000E+00   8.48235919656969E-17
      2.40000000000000E-01
      0.00000000000000E+00   0.00000000000000E+00   0.00000000000000E+00   0.00000000000000E+00  -2.48657210819225E-13
     -4.97470726165085E-11  -4.99957298273277E-11  -1.39456798558260E-17   9.60000000000000E-02   9.60000000000000E-02
      0.00000000000000E+00   0.00000000000000E+00   0.00000000000000E+00   0.00000000000000E+00   0.00000000000000E+00
     -8.23459117362643E-17   2.30000000000000E-01   2.30000000000000E-01   0.00000000000000E+00   0.00000000000000E+00
      4.99914045545571E-11   4.32527277059180E-15   4.99957298273277E-11   1.25176008849044E-17   4.00000000000000E-01
      4.00000000000000E-01   0.00000000000000E+00   0.00000000000000E+00   0.00000000000000E+00   0.00000000000000E+00
      0.00000000000000E+00   8.37739907071858E-17
      2.50000000000000E-01
      0.00000000000000E+00   0.00000000000000E+00   0.00000000000000E+00   0.00000000000000E+00  -2.50011224356577E-13
     -4.74760030238030E-11  -4.77260142481596E-11  -1.39887794152159E-17   1.00000000000000E-01   1.00000000000000E-01
      0.00000000000000E+00   0.00000000000000E+00   0.00000000000000E+00   0.00000000000000E+00   0.00000000000000E+00
     -8.12097212528176E-17   2.30000000000000E-01   2.30000000000000E-01   0.00000000000000E+00   0.00000000000000E+00
      4.77217156655914E-11   4.29858256817398E-15   4.77260142481596E-11   1.24741076565520E-17   4.00000000000000E-01
      4.00000000000000E-01   0.00000000000000E+00   0.00000000000000E+00   0.00000000000000E+00   0.00000000000000E+00
      0.00000000000000E+00   8.27243930114815E-17
      2.60000000000000E-01
      0.00000000000000E+00   0.00000000000000E+00   0.00000000000000E+00   0.00000000000000E+00  -2.51366660834121E-13
     -4.53487363821467E-11  -4.56001030429808E-11  -1.40318707063241E-17   1.04000000000000E-01   1.04000000000000E-01
      0.00000000000000E+00   0.00000000000000E+00   0.00000000000000E+00   0.00000000000000E+00   0.00000000000000E+00
     -8.00735269807920E-17   2.30000000000000E-01   2.30000000000000E-01   0.00000000000000E+00   0.00000000000000E+00
      4.55958310998622E-11   4.27194311859424E-15   4.56001030429808E-11   1.24305985815136E-17   4.00000000000000E-01
      4.00000000000000E-01   0.00000000000000E+00   0.00000000000000E+00   0.00000000000000E+00   0.00000000000000E+00
      0.00000000000000E+00   8.16747991056026E-17
      2.70000000000000E-01
      0.00000000000000E+00   0.00000000000000E+00   0.00000000000000E+00   0.00000000000000E+00  -2.52723508428067E-13
     -4.33557243137849E-11  -4.36084478222129E-11  -1.40749538737823E-17   1.08000000000000E-01   1.08000000000000E-01
      0.00000000000000E+00   0.00000000000000E+00   0.00000000000000E+00   0.00000000000000E+00   0.00000000000000E+00
     -7.89373286912205E-17   2.30000000000000E-01   2.30000000000000E-01   0.00000000000000E+00   0.00000000000000E+00
      4.36042024688896E-11   4.24535332322685E-15   4.36084478222129E-11   1.23870733465011E-17   4.00000000000000E-01
      4.00000000000000E-01   0.00000000000000E+00   0.00000000000000E+00   0.00000000000000E+00   0.00000000000000E+00
      0.00000000000000E+00   8.06252092185017E-17
      2.80000000000000E-01
      0.00000000000000E+00   0.00000000000000E+00   0.00000000000000E+00   0.00000000000000E+00  -2.54081755140708E-13
     -4.14880075141927E-11  -4.17420892693334E-11  -1.41180290592863E-17   1.12000000000000E-01   1.12000000000000E-01
      0.00000000000000E+00   0.00000000000000E+00   0.00000000000000E+00   0.00000000000000E+00   0.00000000000000E+00
     -7.78011261530871E-17   2.30000000000000E-01   2.30000000000000E-01   0.00000000000000E+00   0.00000000000000E+00
      4.17378704572530E-11   4.21881208031298E-15   4.17420892693333E-11   1.23435316311877E-17   4.00000000000000E-01
      4.00000000000000E-01   0.00000000000000E+00   0.00000000000000E+00   0.00000000000000E+00   0.00000000000000E+00
      0.00000000000000E+00   7.95756235811856E-17
      2.90000000000000E-01
      0.00000000000000E+00   0.00000000000000E+00   0.00000000000000E+00   0.00000000000000E+00  -2.55441388825532E-13
     -3.97371871182588E-11  -3.99926285070843E-11  -1.41610964016624E-17   1.16000000000000E-01   1.16000000000000E-01
      0.00000000000000E+00   0.00000000000000E+00   0.00000000000000E+00   0.00000000000000E+00   0.00000000000000E+00
     -7.66649191332052E-17   2.30000000000000E-01   2.30000000000000E-01   0.00000000000000E+00   0.00000000000000E+00
      3.99884361887864E-11   4.19231829788127E-15   3.99926285070843E-11   1.22999731080316E-17   4.00000000000000E-01
      4.00000000000000E-01   0.00000000000000E+00   0.00000000000000E+00   0.00000000000000E+00   0.00000000000000E+00
      0.00000000000000E+00   7.85260424268360E-17
      3.00000000000000E-01
      0.00000000000000E+00   0.00000000000000E+00   0.00000000000000E+00   0.00000000000000E+00  -2.56802397210113E-13
     -3.80953970192739E-11  -3.83521994164840E-11  -1.42041560369321E-17   1.20000000000000E-01   1.20000000000000E-01
      0.00000000000000E+00   0.00000000000000E+00   0.00000000000000E+00   0.00000000000000E+00   0.00000000000000E+00
     -7.55287073960951E-17   2.30000000000000E-01   2.30000000000000E-01   0.00000000000000E+00   0.00000000000000E+00
      3.83480335455876E-11   4.16587089623036E-15   3.83521994164839E-11   1.22563974420945E-17   4.00000000000000E-01
      4.00000000000000E-01   0.00000000000000E+00   0.00000000000000E+00   0.00000000000000E+00   0.00000000000000E+00
      0.00000000000000E+00   7.74764659909326E-17
      3.10000000000000E-01
      0.00000000000000E+00   0.00000000000000E+00   0.00000000000000E+00   0.00000000000000E+00  -2.58164767914519E-13
     -3.65552771303039E-11  -3.68134418982184E-11  -1.42472080983748E-17   1.24000000000000E-01   1.24000000000000E-01
      0.00000000000000E+00   0.00000000000000E+00   0.00000000000000E+00   0.00000000000000E+00   0.00000000000000E+00
     -7.43924907038587E-17   2.30000000000000E-01   2.30000000000000E-01   0.00000000000000E+00   0.00000000000000E+00
      3.68093024293990E-11   4.13946881942682E-15   3.68134418982184E-11   1.22128042908559E-17   4.00000000000000E-01
      4.00000000000000E-01   0.00000000000000E+00   0.00000000000000E+00   0.00000000000000E+00   0.00000000000000E+00
      0.00000000000000E+00   7.64268945113776E-17
      3.20000000000000E-01
      0.00000000000000E+00   0.00000000000000E+00   0.00000000000000E+00   0.00000000000000E+00  -2.59528488470404E-13
     -3.51099475777959E-11  -3.53694760662664E-11  -1.42902527165902E-17   1.28000000000000E-01   1.28000000000000E-01
      0.00000000000000E+00   0.00000000000000E+00   0.00000000000000E+00   0.00000000000000E+00   0.00000000000000E+00
     -7.32562688160536E-17   2.30000000000000E-01   2.30000000000000E-01   0.00000000000000E+00   0.00000000000000E+00
      3.53653629552241E-11   4.11311104221392E-15   3.53694760662664E-11   1.21691933040224E-17   4.00000000000000E-01
      4.00000000000000E-01   0.00000000000000E+00   0.00000000000000E+00   0.00000000000000E+00   0.00000000000000E+00
      0.00000000000000E+00   7.53773282286214E-17
      3.30000000000000E-01
      0.00000000000000E+00   0.00000000000000E+00   0.00000000000000E+00   0.00000000000000E+00  -2.60893546336201E-13
     -3.37529838174593E-11  -3.40138773637955E-11  -1.43332900195577E-17   1.32000000000000E-01   1.32000000000000E-01
      0.00000000000000E+00   0.00000000000000E+00   0.00000000000000E+00   0.00000000000000E+00   0.00000000000000E+00
     -7.21200414895653E-17   2.30000000000000E-01   2.30000000000000E-01   0.00000000000000E+00   0.00000000000000E+00
      3.40097905672213E-11   4.08679657420456E-15   3.40138773637955E-11   1.21255641233320E-17   4.00000000000000E-01
      4.00000000000000E-01   0.00000000000000E+00   0.00000000000000E+00   0.00000000000000E+00   0.00000000000000E+00
      0.00000000000000E+00   7.43277673857910E-17
      3.40000000000000E-01
      0.00000000000000E+00   0.00000000000000E+00   0.00000000000000E+00   0.00000000000000E+00  -2.62259928911995E-13
     -3.24783926625117E-11  -3.27406525914237E-11  -1.43763201326952E-17   1.36000000000000E-01   1.36000000000000E-01
      0.00000000000000E+00   0.00000000000000E+00   0.00000000000000E+00   0.00000000000000E+00   0.00000000000000E+00
     -7.09838084784769E-17   2.30000000000000E-01   2.30000000000000E-01   0.00000000000000E+00   0.00000000000000E+00
      3.27365920669516E-11   4.06052447219603E-15   3.27406525914237E-11   1.20819163823533E-17   4.00000000000000E-01
      4.00000000000000E-01   0.00000000000000E+00   0.00000000000000E+00   0.00000000000000E+00   0.00000000000000E+00
      0.00000000000000E+00   7.32782122288188E-17
      3.50000000000000E-01
      0.00000000000000E+00   0.00000000000000E+00   0.00000000000000E+00   0.00000000000000E+00  -2.63627623551226E-13
     -3.12805892142950E-11  -3.15442168378463E-11  -1.44193431789164E-17   1.40000000000000E-01   1.40000000000000E-01
      0.00000000000000E+00   0.00000000000000E+00   0.00000000000000E+00   0.00000000000000E+00   0.00000000000000E+00
     -6.98475695339377E-17   2.30000000000000E-01   2.30000000000000E-01   0.00000000000000E+00   0.00000000000000E+00
      3.15401825440017E-11   4.03429384457852E-15   3.15442168378463E-11   1.20382497062789E-17   4.00000000000000E-01
      4.00000000000000E-01   0.00000000000000E+00   0.00000000000000E+00   0.00000000000000E+00   0.00000000000000E+00
      0.00000000000000E+00   7.22286630065752E-17
      3.60000000000000E-01
      0.00000000000000E+00   0.00000000000000E+00   0.00000000000000E+00   0.00000000000000E+00  -2.64996617573193E-13
     -3.01543746851361E-11  -3.04193713027093E-11  -1.44623592786865E-17   1.44000000000000E-01   1.44000000000000E-01
      0.00000000000000E+00   0.00000000000000E+00   0.00000000000000E+00   0.00000000000000E+00   0.00000000000000E+00
     -6.87113244040292E-17   2.30000000000000E-01   2.30000000000000E-01   0.00000000000000E+00   0.00000000000000E+00
      3.04153631988507E-11   4.00810385862410E-15   3.04193713027093E-11   1.19945637117145E-17   4.00000000000000E-01
      4.00000000000000E-01   0.00000000000000E+00   0.00000000000000E+00   0.00000000000000E+00   0.00000000000000E+00
      0.00000000000000E+00   7.11791199710012E-17
      3.70000000000000E-01
      0.00000000000000E+00   0.00000000000000E+00   0.00000000000000E+00   0.00000000000000E+00  -2.66366898270820E-13