DF-ISE text

Info {
  version   = 1.0
  type      = xyplot
  datasets  = [
    "time"
    "source OuterVoltage" "source InnerVoltage" "source QuasiFermiPotential" "source DisplacementCurrent" "source eCurrent"
    "source hCurrent" "source TotalCurrent" "source Charge" "topGate OuterVoltage" "topGate InnerVoltage"
    "topGate QuasiFermiPotential" "topGate DisplacementCurrent" "topGate eCurrent" "topGate hCurrent" "topGate TotalCurrent"
    "topGate Charge" "drain OuterVoltage" "drain InnerVoltage" "drain QuasiFermiPotential" "drain DisplacementCurrent"
    "drain eCurrent" "drain hCurrent" "drain TotalCurrent" "drain Charge" "bottomGate OuterVoltage"
    "bottomGate InnerVoltage" "bottomGate QuasiFermiPotential" "bottomGate DisplacementCurrent" "bottomGate eCurrent" "bottomGate hCurrent"
    "bottomGate TotalCurrent" "bottomGate Charge" ]
  functions = [
    Time
    OuterVoltage InnerVoltage QuasiFermiPotential DisplacementCurrent eCurrent
    hCurrent TotalCurrent Charge OuterVoltage InnerVoltage
    QuasiFermiPotential DisplacementCurrent eCurrent hCurrent TotalCurrent
    Charge OuterVoltage InnerVoltage QuasiFermiPotential DisplacementCurrent
    eCurrent hCurrent TotalCurrent Charge OuterVoltage
    InnerVoltage QuasiFermiPotential DisplacementCurrent eCurrent hCurrent
    TotalCurrent Charge ]
}

Data {
      1.00000000000000E-02
      0.00000000000000E+00   0.00000000000000E+00   0.00000000000000E+00   0.00000000000000E+00  -1.78064319569827E-13
     -4.17065684453213E-11  -4.18846327648911E-11  -1.26261812540864E-17   4.00000000000000E-03   4.00000000000000E-03
      0.00000000000000E+00   0.00000000000000E+00   0.00000000000000E+00   0.00000000000000E+00   0.00000000000000E+00
     -9.86302562378647E-17   5.00000000000000E-02   5.00000000000000E-02   0.00000000000000E+00   0.00000000000000E+00
      4.18825364171538E-11   2.09634773730699E-15   4.18846327648911E-11   9.88705257973354E-18   3.70000000000000E-01
      3.70000000000000E-01   0.00000000000000E+00   0.00000000000000E+00   0.00000000000000E+00   0.00000000000000E+00
      0.00000000000000E+00   1.01369384912218E-16
      2.00000000000000E-02
      0.00000000000000E+00   0.00000000000000E+00   0.00000000000000E+00   0.00000000000000E+00  -1.79180459922267E-13
     -4.00370409942765E-11  -4.02162214541988E-11  -1.26696211352083E-17   8.00000000000000E-03   8.00000000000000E-03
      0.00000000000000E+00   0.00000000000000E+00   0.00000000000000E+00   0.00000000000000E+00   0.00000000000000E+00
     -9.74929749658979E-17   5.00000000000000E-02   5.00000000000000E-02   0.00000000000000E+00   0.00000000000000E+00
      4.02141295437266E-11   2.09191047206089E-15   4.02162214541987E-11   9.84171685433203E-18   3.70000000000000E-01
      3.70000000000000E-01   0.00000000000000E+00   0.00000000000000E+00   0.00000000000000E+00   0.00000000000000E+00
      0.00000000000000E+00   1.00320879246774E-16
      3.00000000000000E-02
      0.00000000000000E+00   0.00000000000000E+00   0.00000000000000E+00   0.00000000000000E+00  -1.80298013605898E-13
     -3.84586225494130E-11  -3.86389205630189E-11  -1.27130464934310E-17   1.20000000000000E-02   1.20000000000000E-02
      0.00000000000000E+00   0.00000000000000E+00   0.00000000000000E+00   0.00000000000000E+00   0.00000000000000E+00
     -9.63556730093274E-17   5.00000000000000E-02   5.00000000000000E-02   0.00000000000000E+00   0.00000000000000E+00
      3.86368332875344E-11   2.08727548448341E-15   3.86389205630189E-11   9.79632516238361E-18   3.70000000000000E-01
      3.70000000000000E-01   0.00000000000000E+00   0.00000000000000E+00   0.00000000000000E+00   0.00000000000000E+00
      0.00000000000000E+00   9.92723943403748E-17
      4.00000000000000E-02
      0.00000000000000E+00   0.00000000000000E+00   0.00000000000000E+00   0.00000000000000E+00  -1.81416990440992E-13
     -3.69651921129173E-11  -3.71466091033583E-11  -1.27564576050542E-17   1.60000000000000E-02   1.60000000000000E-02
      0.00000000000000E+00   0.00000000000000E+00   0.00000000000000E+00   0.00000000000000E+00   0.00000000000000E+00
     -9.52183495805899E-17   5.00000000000000E-02   5.00000000000000E-02   0.00000000000000E+00   0.00000000000000E+00
      3.71445266913196E-11   2.08241203860461E-15   3.71466091033582E-11   9.75087620125838E-18   3.70000000000000E-01
      3.70000000000000E-01   0.00000000000000E+00   0.00000000000000E+00   0.00000000000000E+00   0.00000000000000E+00
      0.00000000000000E+00   9.82239309843857E-17
      5.00000000000000E-02
      0.00000000000000E+00   0.00000000000000E+00   0.00000000000000E+00   0.00000000000000E+00  -1.82537397956507E-13
     -3.55510564708662E-11  -3.57335938688227E-11  -1.27998547403639E-17   2.00000000000000E-02   2.00000000000000E-02
      0.00000000000000E+00   0.00000000000000E+00   0.00000000000000E+00   0.00000000000000E+00   0.00000000000000E+00
     -9.40810038781599E-17   5.00000000000000E-02   5.00000000000000E-02   0.00000000000000E+00   0.00000000000000E+00
      3.57315165777116E-11   2.07729111097670E-15   3.57335938688226E-11   9.70536863417477E-18   3.70000000000000E-01
      3.70000000000000E-01   0.00000000000000E+00   0.00000000000000E+00   0.00000000000000E+00   0.00000000000000E+00
      0.00000000000000E+00   9.71754899843490E-17
      6.00000000000000E-02
      0.00000000000000E+00   0.00000000000000E+00   0.00000000000000E+00   0.00000000000000E+00  -1.83659241688465E-13
     -3.42109236133336E-11  -3.43945828550221E-11  -1.28432381637738E-17   2.40000000000000E-02   2.40000000000000E-02
      0.00000000000000E+00   0.00000000000000E+00   0.00000000000000E+00   0.00000000000000E+00   0.00000000000000E+00
     -9.29436350859584E-17   5.00000000000000E-02   5.00000000000000E-02   0.00000000000000E+00   0.00000000000000E+00
      3.43925109694855E-11   2.07188553653125E-15   3.43945828550220E-11   9.65980108914817E-18   3.70000000000000E-01
      3.70000000000000E-01   0.00000000000000E+00   0.00000000000000E+00   0.00000000000000E+00   0.00000000000000E+00
      0.00000000000000E+00   9.61270721605841E-17
      7.00000000000000E-02
      0.00000000000000E+00   0.00000000000000E+00   0.00000000000000E+00   0.00000000000000E+00  -1.84782525433115E-13
     -3.29398775430520E-11  -3.31246600684851E-11  -1.28866081339620E-17   2.80000000000000E-02   2.80000000000000E-02
      0.00000000000000E+00   0.00000000000000E+00   0.00000000000000E+00   0.00000000000000E+00   0.00000000000000E+00
     -9.18062423727420E-17   5.00000000000000E-02   5.00000000000000E-02   0.00000000000000E+00   0.00000000000000E+00
      3.31225938983263E-11   2.06617015874566E-15   3.31246600684850E-11   9.61417215789995E-18   3.70000000000000E-01
      3.70000000000000E-01   0.00000000000000E+00   0.00000000000000E+00   0.00000000000000E+00   0.00000000000000E+00
      0.00000000000000E+00   9.50786783488041E-17
      8.00000000000000E-02
      0.00000000000000E+00   0.00000000000000E+00   0.00000000000000E+00   0.00000000000000E+00  -1.85907251225123E-13
     -3.17333544017509E-11  -3.19192616529761E-11  -1.29299649040047E-17   3.20000000000000E-02   3.20000000000000E-02
      0.00000000000000E+00   0.00000000000000E+00   0.00000000000000E+00   0.00000000000000E+00   0.00000000000000E+00
     -9.06688248914739E-17   5.00000000000000E-02   5.00000000000000E-02   0.00000000000000E+00   0.00000000000000E+00
      3.19172015310337E-11   2.06012194236313E-15   3.19192616529760E-11   9.56848039472475E-18   3.70000000000000E-01
      3.70000000000000E-01   0.00000000000000E+00   0.00000000000000E+00   0.00000000000000E+00   0.00000000000000E+00
      0.00000000000000E+00   9.40303094007538E-17
      9.00000000000000E-02
      0.00000000000000E+00   0.00000000000000E+00   0.00000000000000E+00   0.00000000000000E+00  -1.87033419708721E-13
     -3.05871198492449E-11  -3.07741532689537E-11  -1.29733087215062E-17   3.60000000000000E-02   3.60000000000000E-02
      0.00000000000000E+00   0.00000000000000E+00   0.00000000000000E+00   0.00000000000000E+00   0.00000000000000E+00
     -8.95313817786744E-17   5.00000000000000E-02   5.00000000000000E-02   0.00000000000000E+00   0.00000000000000E+00
      3.07720995488633E-11   2.05372009040571E-15   3.07741532689537E-11   9.52272431531341E-18   3.70000000000000E-01
      3.70000000000000E-01   0.00000000000000E+00   0.00000000000000E+00   0.00000000000000E+00   0.00000000000000E+00
      0.00000000000000E+00   9.29819661848672E-17
      1.00000000000000E-01
      0.00000000000000E+00   0.00000000000000E+00   0.00000000000000E+00   0.00000000000000E+00  -1.88161030087936E-13
     -2.94972476355435E-11  -2.96854086656314E-11  -1.30166398287260E-17   4.00000000000000E-02   4.00000000000000E-02
      0.00000000000000E+00   0.00000000000000E+00   0.00000000000000E+00   0.00000000000000E+00   0.00000000000000E+00
     -8.83939121537498E-17   5.00000000000000E-02   5.00000000000000E-02   0.00000000000000E+00   0.00000000000000E+00
      2.96833617194940E-11   2.04694613742210E-15   2.96854086656314E-11   9.47690239552951E-18   3.70000000000000E-01
      3.70000000000000E-01   0.00000000000000E+00   0.00000000000000E+00   0.00000000000000E+00   0.00000000000000E+00
      0.00000000000000E+00   9.19336495869463E-17
      1.10000000000000E-01
      0.00000000000000E+00   0.00000000000000E+00   0.00000000000000E+00   0.00000000000000E+00  -1.89290080293367E-13
     -2.84600993109646E-11  -2.86493893912580E-11  -1.30599584627019E-17   4.40000000000000E-02   4.40000000000000E-02
      0.00000000000000E+00   0.00000000000000E+00   0.00000000000000E+00   0.00000000000000E+00   0.00000000000000E+00
     -8.72564151182989E-17   5.00000000000000E-02   5.00000000000000E-02   0.00000000000000E+00   0.00000000000000E+00
      2.86473496072380E-11   2.03978401995989E-15   2.86493893912580E-11   9.43101307013659E-18   3.70000000000000E-01
      3.70000000000000E-01   0.00000000000000E+00   0.00000000000000E+00   0.00000000000000E+00   0.00000000000000E+00
      0.00000000000000E+00   9.08853605108641E-17
      1.20000000000000E-01
      0.00000000000000E+00   0.00000000000000E+00   0.00000000000000E+00   0.00000000000000E+00  -1.90420567301674E-13
     -2.74723050234080E-11  -2.76627255907097E-11  -1.31032648553705E-17   4.80000000000000E-02   4.80000000000000E-02
      0.00000000000000E+00   0.00000000000000E+00   0.00000000000000E+00   0.00000000000000E+00   0.00000000000000E+00
     -8.61188897553943E-17   5.00000000000000E-02   5.00000000000000E-02   0.00000000000000E+00   0.00000000000000E+00
      2.76606933705697E-11   2.03222013994990E-15   2.76627255907096E-11   9.38505473147349E-18   3.70000000000000E-01
      3.70000000000000E-01   0.00000000000000E+00   0.00000000000000E+00   0.00000000000000E+00   0.00000000000000E+00
      0.00000000000000E+00   8.98370998792913E-17
      1.30000000000000E-01
      0.00000000000000E+00   0.00000000000000E+00   0.00000000000000E+00   0.00000000000000E+00  -1.91552486905930E-13
     -2.65307453555545E-11  -2.67222978424604E-11  -1.31465592336843E-17   5.20000000000000E-02   5.20000000000000E-02
      0.00000000000000E+00   0.00000000000000E+00   0.00000000000000E+00   0.00000000000000E+00   0.00000000000000E+00
     -8.49813351288386E-17   5.00000000000000E-02   5.00000000000000E-02   0.00000000000000E+00   0.00000000000000E+00
      2.67202735990590E-11   2.02424340140485E-15   2.67222978424604E-11   9.33902572807461E-18   3.70000000000000E-01
      3.70000000000000E-01   0.00000000000000E+00   0.00000000000000E+00   0.00000000000000E+00   0.00000000000000E+00
      0.00000000000000E+00   8.87888686344483E-17
      1.40000000000000E-01
      0.00000000000000E+00   0.00000000000000E+00   0.00000000000000E+00   0.00000000000000E+00  -1.92685834024239E-13
     -2.56325341579946E-11  -2.58252199920189E-11  -1.31898418197255E-17   5.60000000000000E-02   5.60000000000000E-02
      0.00000000000000E+00   0.00000000000000E+00   0.00000000000000E+00   0.00000000000000E+00   0.00000000000000E+00
     -8.38437502823927E-17   5.00000000000000E-02   5.00000000000000E-02   0.00000000000000E+00   0.00000000000000E+00
      2.58232041467846E-11   2.01584523429146E-15   2.58252199920189E-11   9.29292436323210E-18   3.70000000000000E-01
      3.70000000000000E-01   0.00000000000000E+00   0.00000000000000E+00   0.00000000000000E+00   0.00000000000000E+00
      0.00000000000000E+00   8.77406677388861E-17
      1.50000000000000E-01
      0.00000000000000E+00   0.00000000000000E+00   0.00000000000000E+00   0.00000000000000E+00  -1.93820602813285E-13
     -2.47750023370295E-11  -2.49688229398428E-11  -1.32331128308172E-17   6.00000000000000E-02   6.00000000000000E-02
      0.00000000000000E+00   0.00000000000000E+00   0.00000000000000E+00   0.00000000000000E+00   0.00000000000000E+00
     -8.27061342389749E-17   5.00000000000000E-02   5.00000000000000E-02   0.00000000000000E+00   0.00000000000000E+00
      2.49668159202524E-11   2.00701959038964E-15   2.49688229398428E-11   9.24674889349649E-18   3.70000000000000E-01
      3.70000000000000E-01   0.00000000000000E+00   0.00000000000000E+00   0.00000000000000E+00   0.00000000000000E+00
      0.00000000000000E+00   8.66924981762956E-17
      1.60000000000000E-01
      0.00000000000000E+00   0.00000000000000E+00   0.00000000000000E+00   0.00000000000000E+00  -1.94956786610965E-13
     -2.39556825583268E-11  -2.41506393449378E-11  -1.32763724796313E-17   6.40000000000000E-02   6.40000000000000E-02
      0.00000000000000E+00   0.00000000000000E+00   0.00000000000000E+00   0.00000000000000E+00   0.00000000000000E+00
     -8.15684859998286E-17   5.00000000000000E-02   5.00000000000000E-02   0.00000000000000E+00   0.00000000000000E+00
      2.41486415820104E-11   1.99776292730826E-15   2.41506393449378E-11   9.20049752711207E-18   3.70000000000000E-01
      3.70000000000000E-01   0.00000000000000E+00   0.00000000000000E+00   0.00000000000000E+00   0.00000000000000E+00
      0.00000000000000E+00   8.56443609523478E-17
      1.70000000000000E-01
      0.00000000000000E+00   0.00000000000000E+00   0.00000000000000E+00   0.00000000000000E+00  -1.96094378170596E-13
     -2.31722948296407E-11  -2.33683892078113E-11  -1.33196209742937E-17   6.80000000000000E-02   6.80000000000000E-02
      0.00000000000000E+00   0.00000000000000E+00   0.00000000000000E+00   0.00000000000000E+00   0.00000000000000E+00
     -8.04308045436571E-17   5.00000000000000E-02   5.00000000000000E-02   0.00000000000000E+00   0.00000000000000E+00
      2.33664011336446E-11   1.98807416667313E-15   2.33683892078113E-11   9.15416842238332E-18   3.70000000000000E-01
      3.70000000000000E-01   0.00000000000000E+00   0.00000000000000E+00   0.00000000000000E+00   0.00000000000000E+00
      0.00000000000000E+00   8.45962570955675E-17
      1.80000000000000E-01
      0.00000000000000E+00   0.00000000000000E+00   0.00000000000000E+00   0.00000000000000E+00  -1.97233369584560E-13
     -2.24227329275998E-11  -2.26199662971844E-11  -1.33628585184865E-17   7.20000000000000E-02   7.20000000000000E-02
      0.00000000000000E+00   0.00000000000000E+00   0.00000000000000E+00   0.00000000000000E+00   0.00000000000000E+00
     -7.92930888257228E-17   5.00000000000000E-02   5.00000000000000E-02   0.00000000000000E+00   0.00000000000000E+00
      2.26179883425420E-11   1.97795464242062E-15   2.26199662971844E-11   9.10775968596787E-18   3.70000000000000E-01
      3.70000000000000E-01   0.00000000000000E+00   0.00000000000000E+00   0.00000000000000E+00   0.00000000000000E+00
      0.00000000000000E+00   8.35481876582414E-17
      1.90000000000000E-01
      0.00000000000000E+00   0.00000000000000E+00   0.00000000000000E+00   0.00000000000000E+00  -1.98373752415557E-13
     -2.17050516350340E-11  -2.19034253874496E-11  -1.34060853115476E-17   7.60000000000000E-02   7.60000000000000E-02
      0.00000000000000E+00   0.00000000000000E+00   0.00000000000000E+00   0.00000000000000E+00   0.00000000000000E+00
     -7.81553377769088E-17   5.00000000000000E-02   5.00000000000000E-02   0.00000000000000E+00   0.00000000000000E+00
      2.19014579794333E-11   1.96740801625859E-15   2.19034253874496E-11   9.06126937109195E-18   3.70000000000000E-01
      3.70000000000000E-01   0.00000000000000E+00   0.00000000000000E+00   0.00000000000000E+00   0.00000000000000E+00
      0.00000000000000E+00   8.25001537173644E-17
      2.00000000000000E-01
      0.00000000000000E+00   0.00000000000000E+00   0.00000000000000E+00   0.00000000000000E+00  -1.99515517807829E-13
     -2.10174547566350E-11  -2.12169702744428E-11  -1.34493015485669E-17   8.00000000000000E-02   8.00000000000000E-02
      0.00000000000000E+00   0.00000000000000E+00   0.00000000000000E+00   0.00000000000000E+00   0.00000000000000E+00
     -7.70175503027404E-17   5.00000000000000E-02   5.00000000000000E-02   0.00000000000000E+00   0.00000000000000E+00
      2.12150138342525E-11   1.95644019023444E-15   2.12169702744428E-11   9.01469547568310E-18   3.70000000000000E-01
      3.70000000000000E-01   0.00000000000000E+00   0.00000000000000E+00   0.00000000000000E+00   0.00000000000000E+00
      0.00000000000000E+00   8.14521563756242E-17
      2.10000000000000E-01
      0.00000000000000E+00   0.00000000000000E+00   0.00000000000000E+00   0.00000000000000E+00  -2.00658656277841E-13
     -2.03582838817799E-11  -2.05589425380578E-11  -1.34925074204811E-17   8.40000000000000E-02   8.40000000000000E-02
      0.00000000000000E+00   0.00000000000000E+00   0.00000000000000E+00   0.00000000000000E+00   0.00000000000000E+00
     -7.58797252823635E-17   5.00000000000000E-02   5.00000000000000E-02   0.00000000000000E+00   0.00000000000000E+00
      2.05569974788688E-11   1.94505918895259E-15   2.05589425380578E-11   8.96803594041531E-18   3.70000000000000E-01
      3.70000000000000E-01   0.00000000000000E+00   0.00000000000000E+00   0.00000000000000E+00   0.00000000000000E+00
      0.00000000000000E+00   8.04041967624292E-17
      2.20000000000000E-01
      0.00000000000000E+00   0.00000000000000E+00   0.00000000000000E+00   0.00000000000000E+00  -2.01803158260374E-13
     -1.97260078643281E-11  -1.99278110225885E-11  -1.35357031141643E-17   8.80000000000000E-02   8.80000000000000E-02
      0.00000000000000E+00   0.00000000000000E+00   0.00000000000000E+00   0.00000000000000E+00   0.00000000000000E+00
     -7.47418615674774E-17   5.00000000000000E-02   5.00000000000000E-02   0.00000000000000E+00   0.00000000000000E+00
      1.99258777475473E-11   1.93327504114924E-15   1.99278110225885E-11   8.92128864666091E-18   3.70000000000000E-01
      3.70000000000000E-01   0.00000000000000E+00   0.00000000000000E+00   0.00000000000000E+00   0.00000000000000E+00
      0.00000000000000E+00   7.93562760349808E-17
      2.30000000000000E-01
      0.00000000000000E+00   0.00000000000000E+00   0.00000000000000E+00   0.00000000000000E+00  -2.02949013647604E-13
     -1.91192129899403E-11  -1.93221620035879E-11  -1.35788888125173E-17   9.20000000000000E-02   9.20000000000000E-02
      0.00000000000000E+00   0.00000000000000E+00   0.00000000000000E+00   0.00000000000000E+00   0.00000000000000E+00
     -7.36039579812191E-17   5.00000000000000E-02   5.00000000000000E-02   0.00000000000000E+00   0.00000000000000E+00
      1.93202409039547E-11   1.92109963321284E-15   1.93221620035879E-11   8.87445141434332E-18   3.70000000000000E-01
      3.70000000000000E-01   0.00000000000000E+00   0.00000000000000E+00   0.00000000000000E+00   0.00000000000000E+00
      0.00000000000000E+00   7.83083953793930E-17
      2.40000000000000E-01
      0.00000000000000E+00   0.00000000000000E+00   0.00000000000000E+00   0.00000000000000E+00  -2.04096212191109E-13
     -1.85365938022130E-11  -1.87406900144041E-11  -1.36220646945532E-17   9.60000000000000E-02   9.60000000000000E-02
      0.00000000000000E+00   0.00000000000000E+00   0.00000000000000E+00   0.00000000000000E+00   0.00000000000000E+00
     -7.24660133169949E-17   5.00000000000000E-02   5.00000000000000E-02   0.00000000000000E+00   0.00000000000000E+00
      1.87387814678492E-11   1.90854655490225E-15   1.87406900144041E-11   8.82752199968432E-18   3.70000000000000E-01
      3.70000000000000E-01   0.00000000000000E+00   0.00000000000000E+00   0.00000000000000E+00   0.00000000000000E+00
      0.00000000000000E+00   7.72605560118639E-17
      2.50000000000000E-01
      0.00000000000000E+00   0.00000000000000E+00   0.00000000000000E+00   0.00000000000000E+00  -2.05244743137657E-13
     -1.79769445595175E-11  -1.81821893026552E-11  -1.36652309354815E-17   1.00000000000000E-01   1.00000000000000E-01
      0.00000000000000E+00   0.00000000000000E+00   0.00000000000000E+00   0.00000000000000E+00   0.00000000000000E+00
     -7.13280263372576E-17   5.00000000000000E-02   5.00000000000000E-02   0.00000000000000E+00   0.00000000000000E+00
      1.81802936717140E-11   1.89563094113315E-15   1.81821893026552E-11   8.78049809283894E-18   3.70000000000000E-01
      3.70000000000000E-01   0.00000000000000E+00   0.00000000000000E+00   0.00000000000000E+00   0.00000000000000E+00
      0.00000000000000E+00   7.62127591799002E-17
      2.60000000000000E-01
      0.00000000000000E+00   0.00000000000000E+00   0.00000000000000E+00   0.00000000000000E+00  -2.06394595693391E-13
     -1.74391512949741E-11  -1.76455458906675E-11  -1.37083877067888E-17   1.04000000000000E-01   1.04000000000000E-01
      0.00000000000000E+00   0.00000000000000E+00   0.00000000000000E+00   0.00000000000000E+00   0.00000000000000E+00
     -7.01899957722221E-17   5.00000000000000E-02   5.00000000000000E-02   0.00000000000000E+00   0.00000000000000E+00
      1.76436635213754E-11   1.88236929211286E-15   1.76455458906675E-11   8.73337731541066E-18   3.70000000000000E-01
      3.70000000000000E-01   0.00000000000000E+00   0.00000000000000E+00   0.00000000000000E+00   0.00000000000000E+00
      0.00000000000000E+00   7.51650061636002E-17
      2.70000000000000E-01
      0.00000000000000E+00   0.00000000000000E+00   0.00000000000000E+00   0.00000000000000E+00  -2.07545759004046E-13
     -1.69221844525589E-11  -1.71297302115629E-11  -1.37515351763173E-17   1.08000000000000E-01   1.08000000000000E-01
      0.00000000000000E+00   0.00000000000000E+00   0.00000000000000E+00   0.00000000000000E+00   0.00000000000000E+00
     -6.90519203185201E-17   5.00000000000000E-02   5.00000000000000E-02   0.00000000000000E+00   0.00000000000000E+00
      1.71278614322612E-11   1.86877930169638E-15   1.71297302115629E-11   8.68615721783901E-18   3.70000000000000E-01
      3.70000000000000E-01   0.00000000000000E+00   0.00000000000000E+00   0.00000000000000E+00   0.00000000000000E+00
      0.00000000000000E+00   7.41172982769983E-17
      2.80000000000000E-01
      0.00000000000000E+00   0.00000000000000E+00   0.00000000000000E+00   0.00000000000000E+00  -2.08698221725949E-13
     -1.64250920727923E-11  -1.66337902945182E-11  -1.37946735083413E-17   1.12000000000000E-01   1.12000000000000E-01
      0.00000000000000E+00   0.00000000000000E+00   0.00000000000000E+00   0.00000000000000E+00   0.00000000000000E+00
     -6.79137986377847E-17   5.00000000000000E-02   5.00000000000000E-02   0.00000000000000E+00   0.00000000000000E+00
      1.66319354148519E-11   1.85487966626579E-15   1.66337902945182E-11   8.63883527665109E-18   3.70000000000000E-01
      3.70000000000000E-01   0.00000000000000E+00   0.00000000000000E+00   0.00000000000000E+00   0.00000000000000E+00
      0.00000000000000E+00   7.30696368694749E-17
      2.90000000000000E-01
      0.00000000000000E+00   0.00000000000000E+00   0.00000000000000E+00   0.00000000000000E+00  -2.09851972519144E-13
     -1.59469935020071E-11  -1.61568454745263E-11  -1.38378028636405E-17   1.16000000000000E-01   1.16000000000000E-01
      0.00000000000000E+00   0.00000000000000E+00   0.00000000000000E+00   0.00000000000000E+00   0.00000000000000E+00
     -6.67756293551636E-17   5.00000000000000E-02   5.00000000000000E-02   0.00000000000000E+00   0.00000000000000E+00
      1.61550047846253E-11   1.84068990098598E-15   1.61568454745263E-11   8.59140889156787E-18   3.70000000000000E-01
      3.70000000000000E-01   0.00000000000000E+00   0.00000000000000E+00   0.00000000000000E+00   0.00000000000000E+00
      0.00000000000000E+00   7.20220233272363E-17
      3.00000000000000E-01
      0.00000000000000E+00   0.00000000000000E+00   0.00000000000000E+00   0.00000000000000E+00  -2.11006999913032E-13
     -1.54870735996731E-11  -1.56980805995861E-11  -1.38809233995715E-17   1.20000000000000E-01   1.20000000000000E-01
      0.00000000000000E+00   0.00000000000000E+00   0.00000000000000E+00   0.00000000000000E+00   0.00000000000000E+00
     -6.56374110577539E-17   5.00000000000000E-02   5.00000000000000E-02   0.00000000000000E+00   0.00000000000000E+00
      1.56962543694330E-11   1.82623015313255E-15   1.56980805995861E-11   8.54387538245538E-18   3.70000000000000E-01
      3.70000000000000E-01   0.00000000000000E+00   0.00000000000000E+00   0.00000000000000E+00   0.00000000000000E+00
      0.00000000000000E+00   7.09744590748701E-17
      3.10000000000000E-01
      0.00000000000000E+00   0.00000000000000E+00   0.00000000000000E+00   0.00000000000000E+00  -2.12163292428511E-13
     -1.50445774187898E-11  -1.52567407112183E-11  -1.39240352701363E-17   1.24000000000000E-01   1.24000000000000E-01
      0.00000000000000E+00   0.00000000000000E+00   0.00000000000000E+00   0.00000000000000E+00   0.00000000000000E+00
     -6.44991422929537E-17   5.00000000000000E-02   5.00000000000000E-02   0.00000000000000E+00   0.00000000000000E+00
      1.52549291902022E-11   1.81152101601815E-15   1.52567407112183E-11   8.49623198611030E-18   3.70000000000000E-01
      3.70000000000000E-01   0.00000000000000E+00   0.00000000000000E+00   0.00000000000000E+00   0.00000000000000E+00
      0.00000000000000E+00   6.99269455769796E-17
      3.20000000000000E-01
      0.00000000000000E+00   0.00000000000000E+00   0.00000000000000E+00   0.00000000000000E+00  -2.13320838578796E-13
     -1.46188053349250E-11  -1.48321261735038E-11  -1.39671386260486E-17   1.28000000000000E-01   1.28000000000000E-01
      0.00000000000000E+00   0.00000000000000E+00   0.00000000000000E+00   0.00000000000000E+00   0.00000000000000E+00
     -6.33608215667244E-17   5.00000000000000E-02   5.00000000000000E-02   0.00000000000000E+00   0.00000000000000E+00
      1.48303295901564E-11   1.79658334741170E-15   1.48321261735038E-11   8.44847585286861E-18   3.70000000000000E-01
      3.70000000000000E-01   0.00000000000000E+00   0.00000000000000E+00   0.00000000000000E+00   0.00000000000000E+00
      0.00000000000000E+00   6.88794843399045E-17
      3.30000000000000E-01
      0.00000000000000E+00   0.00000000000000E+00   0.00000000000000E+00   0.00000000000000E+00  -2.14479626575974E-13
     -1.42091086000624E-11  -1.44235882266384E-11  -1.40102336147983E-17   1.32000000000000E-01   1.32000000000000E-01
      0.00000000000000E+00   0.00000000000000E+00   0.00000000000000E+00   0.00000000000000E+00   0.00000000000000E+00
     -6.22224473417581E-17   5.00000000000000E-02   5.00000000000000E-02   0.00000000000000E+00   0.00000000000000E+00
      1.44218067885433E-11   1.78143809508116E-15   1.44235882266384E-11   8.40060404302477E-18   3.70000000000000E-01
      3.70000000000000E-01   0.00000000000000E+00   0.00000000000000E+00   0.00000000000000E+00   0.00000000000000E+00
      0.00000000000000E+00   6.78320769135316E-17
      3.40000000000000E-01
      0.00000000000000E+00   0.00000000000000E+00   0.00000000000000E+00   0.00000000000000E+00  -2.15639644195468E-13
     -1.38148852980536E-11  -1.40305249422491E-11  -1.40533203807124E-17   1.36000000000000E-01   1.36000000000000E-01
      0.00000000000000E+00   0.00000000000000E+00   0.00000000000000E+00   0.00000000000000E+00   0.00000000000000E+00
     -6.10840180355409E-17   5.00000000000000E-02   5.00000000000000E-02   0.00000000000000E+00   0.00000000000000E+00
      1.40287588361215E-11   1.76610612756084E-15   1.40305249422491E-11   8.35261352304869E-18   3.70000000000000E-01
      3.70000000000000E-01   0.00000000000000E+00   0.00000000000000E+00   0.00000000000000E+00   0.00000000000000E+00
      0.00000000000000E+00   6.67847248932046E-17
      3.50000000000000E-01
      0.00000000000000E+00   0.00000000000000E+00   0.00000000000000E+00   0.00000000000000E+00  -2.16800880258701E-13
     -1.34355766791603E-11  -1.36523775594190E-11  -1.40963990650146E-17   1.40000000000000E-01   1.40000000000000E-01
      0.00000000000000E+00   0.00000000000000E+00   0.00000000000000E+00   0.00000000000000E+00   0.00000000000000E+00
     -5.99455320183083E-17   5.00000000000000E-02   5.00000000000000E-02   0.00000000000000E+00   0.00000000000000E+00
      1.36506269513407E-11   1.75060807829069E-15   1.36523775594190E-11   8.30450116158587E-18   3.70000000000000E-01
      3.70000000000000E-01   0.00000000000000E+00   0.00000000000000E+00   0.00000000000000E+00   0.00000000000000E+00
      0.00000000000000E+00   6.57374299217371E-17
      3.60000000000000E-01
      0.00000000000000E+00   0.00000000000000E+00   0.00000000000000E+00   0.00000000000000E+00  -2.17963322885294E-13
     -1.30706638518834E-11  -1.32886271747687E-11  -1.41394698058816E-17   1.44000000000000E-01   1.44000000000000E-01
      0.00000000000000E+00   0.00000000000000E+00   0.00000000000000E+00   0.00000000000000E+00   0.00000000000000E+00
     -5.88069876108810E-17   5.00000000000000E-02   5.00000000000000E-02   0.00000000000000E+00   0.00000000000000E+00
      1.32868922105712E-11   1.73496419748885E-15   1.32886271747687E-11   8.25626372522567E-18   3.70000000000000E-01
      3.70000000000000E-01   0.00000000000000E+00   0.00000000000000E+00   0.00000000000000E+00   0.00000000000000E+00
      0.00000000000000E+00   6.46901936915370E-17
      3.70000000000000E-01
      0.00000000000000E+00   0.00000000000000E+00   0.00000000000000E+00   0.00000000000000E+00  -2.19126959903363E-13