DF-ISE text

Info {
  version   = 1.0
  type      = xyplot
  datasets  = [
    "time"
    "source OuterVoltage" "source InnerVoltage" "source QuasiFermiPotential" "source DisplacementCurrent" "source eCurrent"
    "source hCurrent" "source TotalCurrent" "source Charge" "topGate OuterVoltage" "topGate InnerVoltage"
    "topGate QuasiFermiPotential" "topGate DisplacementCurrent" "topGate eCurrent" "topGate hCurrent" "topGate TotalCurrent"
    "topGate Charge" "drain OuterVoltage" "drain InnerVoltage" "drain QuasiFermiPotential" "drain DisplacementCurrent"
    "drain eCurrent" "drain hCurrent" "drain TotalCurrent" "drain Charge" "bottomGate OuterVoltage"
    "bottomGate InnerVoltage" "bottomGate QuasiFermiPotential" "bottomGate DisplacementCurrent" "bottomGate eCurrent" "bottomGate hCurrent"
    "bottomGate TotalCurrent" "bottomGate Charge" ]
  functions = [
    Time
    OuterVoltage InnerVoltage QuasiFermiPotential DisplacementCurrent eCurrent
    hCurrent TotalCurrent Charge OuterVoltage InnerVoltage
    QuasiFermiPotential DisplacementCurrent eCurrent hCurrent TotalCurrent
    Charge OuterVoltage InnerVoltage QuasiFermiPotential DisplacementCurrent
    eCurrent hCurrent TotalCurrent Charge OuterVoltage
    InnerVoltage QuasiFermiPotential DisplacementCurrent eCurrent hCurrent
    TotalCurrent Charge ]
}

Data {
      1.00000000000000E-02
      0.00000000000000E+00   0.00000000000000E+00   0.00000000000000E+00   0.00000000000000E+00  -1.00708167800343E-13
     -6.14560469153938E-10  -6.14661177321738E-10  -8.47409778010364E-18   4.00000000000000E-03   4.00000000000000E-03
      0.00000000000000E+00   0.00000000000000E+00   0.00000000000000E+00   0.00000000000000E+00   0.00000000000000E+00
     -5.06522077175410E-18   3.70000000000000E-01   3.70000000000000E-01   0.00000000000000E+00   0.00000000000000E+00
      6.14727318219148E-10  -6.61408974094524E-14   6.14661177321738E-10   2.07903292070976E-17   0.00000000000000E+00
      0.00000000000000E+00   0.00000000000000E+00   0.00000000000000E+00   0.00000000000000E+00   0.00000000000000E+00
      0.00000000000000E+00  -7.25101065523985E-18
      2.00000000000000E-02
      0.00000000000000E+00   0.00000000000000E+00   0.00000000000000E+00   0.00000000000000E+00  -1.01690468979398E-13
     -5.95541263667197E-10  -5.95642954136177E-10  -8.52169442115333E-18   8.00000000000000E-03   8.00000000000000E-03
      0.00000000000000E+00   0.00000000000000E+00   0.00000000000000E+00   0.00000000000000E+00   0.00000000000000E+00
     -3.92717551250735E-18   3.70000000000000E-01   3.70000000000000E-01   0.00000000000000E+00   0.00000000000000E+00
      5.95704636217257E-10  -6.16820810795591E-14   5.95642954136177E-10   2.07476249775247E-17   0.00000000000000E+00
      0.00000000000000E+00   0.00000000000000E+00   0.00000000000000E+00   0.00000000000000E+00   0.00000000000000E+00
      0.00000000000000E+00  -8.29875504386402E-18
      3.00000000000000E-02
      0.00000000000000E+00   0.00000000000000E+00   0.00000000000000E+00   0.00000000000000E+00  -1.02677671939839E-13
     -5.77356247853057E-10  -5.77458925524997E-10  -8.56918657515239E-18   1.20000000000000E-02   1.20000000000000E-02
      0.00000000000000E+00   0.00000000000000E+00   0.00000000000000E+00   0.00000000000000E+00   0.00000000000000E+00
     -2.78918538194052E-18   3.70000000000000E-01   3.70000000000000E-01   0.00000000000000E+00   0.00000000000000E+00
      5.77516392307709E-10  -5.74667827119635E-14   5.77458925524998E-10   2.07049263076261E-17   0.00000000000000E+00
      0.00000000000000E+00   0.00000000000000E+00   0.00000000000000E+00   0.00000000000000E+00   0.00000000000000E+00
      0.00000000000000E+00  -9.34655435053314E-18
      4.00000000000000E-02
      0.00000000000000E+00   0.00000000000000E+00   0.00000000000000E+00   0.00000000000000E+00  -1.03669751675457E-13
     -5.59973587713840E-10  -5.60077257465515E-10  -8.61657658733995E-18   1.60000000000000E-02   1.60000000000000E-02
      0.00000000000000E+00   0.00000000000000E+00   0.00000000000000E+00   0.00000000000000E+00   0.00000000000000E+00
     -1.65124895775133E-18   3.70000000000000E-01   3.70000000000000E-01   0.00000000000000E+00   0.00000000000000E+00
      5.60130740528346E-10  -5.34830628295818E-14   5.60077257465516E-10   2.06622327206548E-17   0.00000000000000E+00
      0.00000000000000E+00   0.00000000000000E+00   0.00000000000000E+00   0.00000000000000E+00   0.00000000000000E+00
      0.00000000000000E+00  -1.03944071755635E-17
      5.00000000000000E-02
      0.00000000000000E+00   0.00000000000000E+00   0.00000000000000E+00   0.00000000000000E+00  -1.04666682314218E-13
     -5.43362622752084E-10  -5.43467289434398E-10  -8.66386674990198E-18   2.00000000000000E-02   2.00000000000000E-02
      0.00000000000000E+00   0.00000000000000E+00   0.00000000000000E+00   0.00000000000000E+00   0.00000000000000E+00
     -5.13364862396928E-19   3.70000000000000E-01   3.70000000000000E-01   0.00000000000000E+00   0.00000000000000E+00
      5.43517008928520E-10  -4.97194941225656E-14   5.43467289434398E-10   2.06195437741550E-17   0.00000000000000E+00
      0.00000000000000E+00   0.00000000000000E+00   0.00000000000000E+00   0.00000000000000E+00   0.00000000000000E+00
      0.00000000000000E+00  -1.14423121618561E-17
      6.00000000000000E-02
      0.00000000000000E+00   0.00000000000000E+00   0.00000000000000E+00   0.00000000000000E+00  -1.05668437169187E-13
     -5.27493832376512E-10  -5.27599500813681E-10  -8.71105930305209E-18   2.40000000000000E-02   2.40000000000000E-02
      0.00000000000000E+00   0.00000000000000E+00   0.00000000000000E+00   0.00000000000000E+00   0.00000000000000E+00
      6.24468238835616E-19   3.70000000000000E-01   3.70000000000000E-01   0.00000000000000E+00   0.00000000000000E+00
      5.27645665961708E-10  -4.61651480262760E-14   5.27599500813681E-10   2.05768590573818E-17   0.00000000000000E+00
      0.00000000000000E+00   0.00000000000000E+00   0.00000000000000E+00   0.00000000000000E+00   0.00000000000000E+00
      0.00000000000000E+00  -1.24902679931653E-17
      7.00000000000000E-02
      0.00000000000000E+00   0.00000000000000E+00   0.00000000000000E+00   0.00000000000000E+00  -1.06674988786854E-13
     -5.12338802851623E-10  -5.12445477840410E-10  -8.75815643609931E-18   2.80000000000000E-02   2.80000000000000E-02
      0.00000000000000E+00   0.00000000000000E+00   0.00000000000000E+00   0.00000000000000E+00   0.00000000000000E+00
      1.76225163964589E-18   3.70000000000000E-01   3.70000000000000E-01   0.00000000000000E+00   0.00000000000000E+00
      5.12488287414602E-10  -4.28095741924183E-14   5.12445477840410E-10   2.05341781889163E-17   0.00000000000000E+00
      0.00000000000000E+00   0.00000000000000E+00   0.00000000000000E+00   0.00000000000000E+00   0.00000000000000E+00
      0.00000000000000E+00  -1.35382733924629E-17
      8.00000000000000E-02
      0.00000000000000E+00   0.00000000000000E+00   0.00000000000000E+00   0.00000000000000E+00  -1.07686308992980E-13
     -4.97870194786274E-10  -4.97977881095267E-10  -8.80516028850178E-18   3.20000000000000E-02   3.20000000000000E-02
      0.00000000000000E+00   0.00000000000000E+00   0.00000000000000E+00   0.00000000000000E+00   0.00000000000000E+00
      2.89998659443133E-18   3.70000000000000E-01   3.70000000000000E-01   0.00000000000000E+00   0.00000000000000E+00
      4.98017523882248E-10  -3.96427869815772E-14   4.97977881095267E-10   2.04915008144619E-17   0.00000000000000E+00
      0.00000000000000E+00   0.00000000000000E+00   0.00000000000000E+00   0.00000000000000E+00   0.00000000000000E+00
      0.00000000000000E+00  -1.45863271203915E-17
      9.00000000000000E-02
      0.00000000000000E+00   0.00000000000000E+00   0.00000000000000E+00   0.00000000000000E+00  -1.08702368936140E-13
     -4.84061711192830E-10  -4.84170413561767E-10  -8.85207295090669E-18   3.60000000000000E-02   3.60000000000000E-02
      0.00000000000000E+00   0.00000000000000E+00   0.00000000000000E+00   0.00000000000000E+00   0.00000000000000E+00
      4.03767431990088E-18   3.70000000000000E-01   3.70000000000000E-01   0.00000000000000E+00   0.00000000000000E+00
      4.84207068798299E-10  -3.66552365320339E-14   4.84170413561767E-10   2.04488266048066E-17   0.00000000000000E+00
      0.00000000000000E+00   0.00000000000000E+00   0.00000000000000E+00   0.00000000000000E+00   0.00000000000000E+00
      0.00000000000000E+00  -1.56344279738008E-17
      1.00000000000000E-01
      0.00000000000000E+00   0.00000000000000E+00   0.00000000000000E+00   0.00000000000000E+00  -1.09723139129062E-13
     -4.70888066083161E-10  -4.70997789222290E-10  -8.89889646617534E-18   4.00000000000000E-02   4.00000000000000E-02
      0.00000000000000E+00   0.00000000000000E+00   0.00000000000000E+00   0.00000000000000E+00   0.00000000000000E+00
      5.17531599659767E-18   3.70000000000000E-01   3.70000000000000E-01   0.00000000000000E+00   0.00000000000000E+00
      4.71031627029064E-10  -3.38378067742647E-14   4.70997789222290E-10   2.04061552539393E-17   0.00000000000000E+00
      0.00000000000000E+00   0.00000000000000E+00   0.00000000000000E+00   0.00000000000000E+00   0.00000000000000E+00
      0.00000000000000E+00  -1.66825747843617E-17
      1.10000000000000E-01
      0.00000000000000E+00   0.00000000000000E+00   0.00000000000000E+00   0.00000000000000E+00  -1.10748589487898E-13
     -4.58324953661006E-10  -4.58435702250493E-10  -8.94563283039368E-18   4.40000000000000E-02   4.40000000000000E-02
      0.00000000000000E+00   0.00000000000000E+00   0.00000000000000E+00   0.00000000000000E+00   0.00000000000000E+00
      6.31291277033720E-18   3.70000000000000E-01   3.70000000000000E-01   0.00000000000000E+00   0.00000000000000E+00
      4.58466884039566E-10  -3.11817890732667E-14   4.58435702250493E-10   2.03634864773090E-17   0.00000000000000E+00
      0.00000000000000E+00   0.00000000000000E+00   0.00000000000000E+00   0.00000000000000E+00   0.00000000000000E+00
      0.00000000000000E+00  -1.77307664172525E-17
      1.20000000000000E-01
      0.00000000000000E+00   0.00000000000000E+00   0.00000000000000E+00   0.00000000000000E+00  -1.11778689369534E-13
     -4.46349018077722E-10  -4.46460796767092E-10  -8.99228399386774E-18   4.80000000000000E-02   4.80000000000000E-02
      0.00000000000000E+00   0.00000000000000E+00   0.00000000000000E+00   0.00000000000000E+00   0.00000000000000E+00
      7.45046575356692E-18   3.70000000000000E-01   3.70000000000000E-01   0.00000000000000E+00   0.00000000000000E+00
      4.46489475639407E-10  -2.86788723156170E-14   4.46460796767091E-10   2.03208200102139E-17   0.00000000000000E+00
      0.00000000000000E+00   0.00000000000000E+00   0.00000000000000E+00   0.00000000000000E+00   0.00000000000000E+00
      0.00000000000000E+00  -1.87790017699131E-17
      1.30000000000000E-01
      0.00000000000000E+00   0.00000000000000E+00   0.00000000000000E+00   0.00000000000000E+00  -1.12813407607061E-13
     -4.34937823786488E-10  -4.35050637194095E-10  -9.03885186210380E-18   5.20000000000000E-02   5.20000000000000E-02
      0.00000000000000E+00   0.00000000000000E+00   0.00000000000000E+00   0.00000000000000E+00   0.00000000000000E+00
      8.58797602665234E-18   3.70000000000000E-01   3.70000000000000E-01   0.00000000000000E+00   0.00000000000000E+00
      4.35076958315773E-10  -2.63211216778015E-14   4.35050637194095E-10   2.02781556063129E-17   0.00000000000000E+00
      0.00000000000000E+00   0.00000000000000E+00   0.00000000000000E+00   0.00000000000000E+00   0.00000000000000E+00
      0.00000000000000E+00  -1.98272797708614E-17
      1.40000000000000E-01
      0.00000000000000E+00   0.00000000000000E+00   0.00000000000000E+00   0.00000000000000E+00  -1.13852712543491E-13
     -4.24069826478929E-10  -4.24183679191473E-10  -9.08533829677322E-18   5.60000000000000E-02   5.60000000000000E-02
      0.00000000000000E+00   0.00000000000000E+00   0.00000000000000E+00   0.00000000000000E+00   0.00000000000000E+00
      9.72544463909502E-18   3.70000000000000E-01   3.70000000000000E-01   0.00000000000000E+00   0.00000000000000E+00
      4.24207780160523E-10  -2.41009690497211E-14   4.24183679191473E-10   2.02354930362485E-17   0.00000000000000E+00
      0.00000000000000E+00   0.00000000000000E+00   0.00000000000000E+00   0.00000000000000E+00   0.00000000000000E+00
      0.00000000000000E+00  -2.08755993785703E-17
      1.50000000000000E-01
      0.00000000000000E+00   0.00000000000000E+00   0.00000000000000E+00   0.00000000000000E+00  -1.14896572063843E-13
     -4.13724344630039E-10  -4.13839241202103E-10  -9.13174511666173E-18   6.00000000000000E-02   6.00000000000000E-02
      0.00000000000000E+00   0.00000000000000E+00   0.00000000000000E+00   0.00000000000000E+00   0.00000000000000E+00
      1.08628726106868E-17   3.70000000000000E-01   3.70000000000000E-01   0.00000000000000E+00   0.00000000000000E+00
      4.13861252397833E-10  -2.20111957300555E-14   4.13839241202103E-10   2.01928320863729E-17   0.00000000000000E+00
      0.00000000000000E+00   0.00000000000000E+00   0.00000000000000E+00   0.00000000000000E+00   0.00000000000000E+00
      0.00000000000000E+00  -2.19239595803979E-17
      1.60000000000000E-01
      0.00000000000000E+00   0.00000000000000E+00   0.00000000000000E+00   0.00000000000000E+00  -1.15944953625687E-13
     -4.03881531643749E-10  -4.03997476597375E-10  -9.17807409860305E-18   6.40000000000000E-02   6.40000000000000E-02
      0.00000000000000E+00   0.00000000000000E+00   0.00000000000000E+00   0.00000000000000E+00   0.00000000000000E+00
      1.20002609326046E-17   3.70000000000000E-01   3.70000000000000E-01   0.00000000000000E+00   0.00000000000000E+00
      4.04017521518485E-10  -2.00449211099010E-14   4.03997476597375E-10   2.01501725575702E-17   0.00000000000000E+00
      0.00000000000000E+00   0.00000000000000E+00   0.00000000000000E+00   0.00000000000000E+00   0.00000000000000E+00
      0.00000000000000E+00  -2.29723593915717E-17
      1.70000000000000E-01
      0.00000000000000E+00   0.00000000000000E+00   0.00000000000000E+00   0.00000000000000E+00  -1.16997824288238E-13
     -3.94522348615716E-10  -3.94639346440004E-10  -9.22432697839698E-18   6.80000000000000E-02   6.80000000000000E-02
      0.00000000000000E+00   0.00000000000000E+00   0.00000000000000E+00   0.00000000000000E+00   0.00000000000000E+00
      1.31376105684498E-17   3.70000000000000E-01   3.70000000000000E-01   0.00000000000000E+00   0.00000000000000E+00
      3.94657542026448E-10  -1.81955864445956E-14   3.94639346440004E-10   2.01075142641664E-17   0.00000000000000E+00
      0.00000000000000E+00   0.00000000000000E+00   0.00000000000000E+00   0.00000000000000E+00   0.00000000000000E+00
      0.00000000000000E+00  -2.40207978542192E-17
      1.80000000000000E-01
      0.00000000000000E+00   0.00000000000000E+00   0.00000000000000E+00   0.00000000000000E+00  -1.18055150740125E-13
     -3.85628537709215E-10  -3.85746592859955E-10  -9.27050545171158E-18   7.20000000000000E-02   7.20000000000000E-02
      0.00000000000000E+00   0.00000000000000E+00   0.00000000000000E+00   0.00000000000000E+00   0.00000000000000E+00
      1.42749224552359E-17   3.70000000000000E-01   3.70000000000000E-01   0.00000000000000E+00   0.00000000000000E+00
      3.85763049803059E-10  -1.64569431034228E-14   3.85746592859955E-10   2.00648570329208E-17   0.00000000000000E+00
      0.00000000000000E+00   0.00000000000000E+00   0.00000000000000E+00   0.00000000000000E+00   0.00000000000000E+00
      0.00000000000000E+00  -2.50692740364451E-17
      1.90000000000000E-01
      0.00000000000000E+00   0.00000000000000E+00   0.00000000000000E+00   0.00000000000000E+00  -1.19116899325894E-13
     -3.77182596153265E-10  -3.77301713052591E-10  -9.31661117496976E-18   7.60000000000000E-02   7.60000000000000E-02
      0.00000000000000E+00   0.00000000000000E+00   0.00000000000000E+00   0.00000000000000E+00   0.00000000000000E+00
      1.54121975043274E-17   3.70000000000000E-01   3.70000000000000E-01   0.00000000000000E+00   0.00000000000000E+00
      3.77316536093639E-10  -1.48230410483396E-14   3.77301713052591E-10   2.00222007020932E-17   0.00000000000000E+00
      0.00000000000000E+00   0.00000000000000E+00   0.00000000000000E+00   0.00000000000000E+00   0.00000000000000E+00
      0.00000000000000E+00  -2.61177870314508E-17
      2.00000000000000E-01
      0.00000000000000E+00   0.00000000000000E+00   0.00000000000000E+00   0.00000000000000E+00  -1.20183036071384E-13
     -3.69167750870399E-10  -3.69287933906470E-10  -9.36264576622017E-18   8.00000000000000E-02   8.00000000000000E-02
      0.00000000000000E+00   0.00000000000000E+00   0.00000000000000E+00   0.00000000000000E+00   0.00000000000000E+00
      1.65494366023339E-17   3.70000000000000E-01   3.70000000000000E-01   0.00000000000000E+00   0.00000000000000E+00
      3.69301222121142E-10  -1.32882146724457E-14   3.69287933906470E-10   1.99795451205801E-17   0.00000000000000E+00
      0.00000000000000E+00   0.00000000000000E+00   0.00000000000000E+00   0.00000000000000E+00   0.00000000000000E+00
      0.00000000000000E+00  -2.71663359566938E-17
      2.10000000000000E-01
      0.00000000000000E+00   0.00000000000000E+00   0.00000000000000E+00   0.00000000000000E+00  -1.21253526708034E-13
     -3.61567933732800E-10  -3.61689187259508E-10  -9.40861080599228E-18   8.40000000000000E-02   8.40000000000000E-02
      0.00000000000000E+00   0.00000000000000E+00   0.00000000000000E+00   0.00000000000000E+00   0.00000000000000E+00
      1.76866406119611E-17   3.70000000000000E-01   3.70000000000000E-01   0.00000000000000E+00   0.00000000000000E+00
      3.61701034330945E-10  -1.18470714360456E-14   3.61689187259509E-10   1.99368901471159E-17   0.00000000000000E+00
      0.00000000000000E+00   0.00000000000000E+00   0.00000000000000E+00   0.00000000000000E+00   0.00000000000000E+00
      0.00000000000000E+00  -2.82149199530847E-17
      2.20000000000000E-01
      0.00000000000000E+00   0.00000000000000E+00   0.00000000000000E+00   0.00000000000000E+00  -1.22328336696247E-13
     -3.54367757451816E-10  -3.54490085788512E-10  -9.45450783813592E-18   8.80000000000000E-02   8.80000000000000E-02
      0.00000000000000E+00   0.00000000000000E+00   0.00000000000000E+00   0.00000000000000E+00   0.00000000000000E+00
      1.88238103728228E-17   3.70000000000000E-01   3.70000000000000E-01   0.00000000000000E+00   0.00000000000000E+00
      3.54500580270680E-10  -1.04944821676261E-14   3.54490085788512E-10   1.98942356495327E-17   0.00000000000000E+00
      0.00000000000000E+00   0.00000000000000E+00   0.00000000000000E+00   0.00000000000000E+00   0.00000000000000E+00
      0.00000000000000E+00  -2.92635381842196E-17
      2.30000000000000E-01
      0.00000000000000E+00   0.00000000000000E+00   0.00000000000000E+00   0.00000000000000E+00  -1.23407431247889E-13
     -3.47552492110256E-10  -3.47675899541504E-10  -9.50033837064526E-18   9.20000000000000E-02   9.20000000000000E-02
      0.00000000000000E+00   0.00000000000000E+00   0.00000000000000E+00   0.00000000000000E+00   0.00000000000000E+00
      1.99609467022152E-17   3.70000000000000E-01   3.70000000000000E-01   0.00000000000000E+00   0.00000000000000E+00
      3.47685125108648E-10  -9.22556714361664E-15   3.47675899541504E-10   1.98515815040755E-17   0.00000000000000E+00
      0.00000000000000E+00   0.00000000000000E+00   0.00000000000000E+00   0.00000000000000E+00   0.00000000000000E+00
      0.00000000000000E+00  -3.03121898356454E-17
      2.40000000000000E-01
      0.00000000000000E+00   0.00000000000000E+00   0.00000000000000E+00   0.00000000000000E+00  -1.24490775348025E-13
     -3.41108042328838E-10  -3.41232533104187E-10  -9.54610387646728E-18   9.60000000000000E-02   9.60000000000000E-02
      0.00000000000000E+00   0.00000000000000E+00   0.00000000000000E+00   0.00000000000000E+00   0.00000000000000E+00
      2.10980503958560E-17   3.70000000000000E-01   3.70000000000000E-01   0.00000000000000E+00   0.00000000000000E+00
      3.41240568794048E-10  -8.03568986149296E-15   3.41232533104187E-10   1.98089275947684E-17   0.00000000000000E+00
      0.00000000000000E+00   0.00000000000000E+00   0.00000000000000E+00   0.00000000000000E+00   0.00000000000000E+00
      0.00000000000000E+00  -3.13608741141571E-17
      2.50000000000000E-01
      0.00000000000000E+00   0.00000000000000E+00   0.00000000000000E+00   0.00000000000000E+00  -1.25578333775983E-13
     -3.35020925087853E-10  -3.35146503421629E-10  -9.59180579429494E-18   1.00000000000000E-01   1.00000000000000E-01
      0.00000000000000E+00   0.00000000000000E+00   0.00000000000000E+00   0.00000000000000E+00   0.00000000000000E+00
      2.22351222285916E-17   3.70000000000000E-01   3.70000000000000E-01   0.00000000000000E+00   0.00000000000000E+00
      3.35153423862061E-10  -6.92044043198394E-15   3.35146503421629E-10   1.97662738128269E-17   0.00000000000000E+00
      0.00000000000000E+00   0.00000000000000E+00   0.00000000000000E+00   0.00000000000000E+00   0.00000000000000E+00
      0.00000000000000E+00  -3.24095902471235E-17
      2.60000000000000E-01
      0.00000000000000E+00   0.00000000000000E+00   0.00000000000000E+00   0.00000000000000E+00  -1.26670071125821E-13
     -3.29278248182626E-10  -3.29404918253752E-10  -9.63744552934489E-18   1.04000000000000E-01   1.04000000000000E-01
      0.00000000000000E+00   0.00000000000000E+00   0.00000000000000E+00   0.00000000000000E+00   0.00000000000000E+00
      2.33721629550723E-17   3.70000000000000E-01   3.70000000000000E-01   0.00000000000000E+00   0.00000000000000E+00
      3.29410793886519E-10  -5.87563276690071E-15   3.29404918253752E-10   1.97236200561143E-17   0.00000000000000E+00
      0.00000000000000E+00   0.00000000000000E+00   0.00000000000000E+00   0.00000000000000E+00   0.00000000000000E+00
      0.00000000000000E+00  -3.34583374818418E-17
      2.70000000000000E-01
      0.00000000000000E+00   0.00000000000000E+00   0.00000000000000E+00   0.00000000000000E+00  -1.27765951826311E-13
     -3.23867689341504E-10  -3.23995455293330E-10  -9.68302445412032E-18   1.08000000000000E-01   1.08000000000000E-01
      0.00000000000000E+00   0.00000000000000E+00   0.00000000000000E+00   0.00000000000000E+00   0.00000000000000E+00
      2.45091733103995E-17   3.70000000000000E-01   3.70000000000000E-01   0.00000000000000E+00   0.00000000000000E+00
      3.24000352582736E-10  -4.89728940606746E-15   3.23995455293330E-10   1.96809662286383E-17   0.00000000000000E+00
      0.00000000000000E+00   0.00000000000000E+00   0.00000000000000E+00   0.00000000000000E+00   0.00000000000000E+00
      0.00000000000000E+00  -3.45071150849175E-17
      2.80000000000000E-01
      0.00000000000000E+00   0.00000000000000E+00   0.00000000000000E+00   0.00000000000000E+00  -1.28865940160488E-13
     -3.18777475987522E-10  -3.18906341927682E-10  -9.72854390915853E-18   1.12000000000000E-01   1.12000000000000E-01
      0.00000000000000E+00   0.00000000000000E+00   0.00000000000000E+00   0.00000000000000E+00   0.00000000000000E+00
      2.56461540107450E-17   3.70000000000000E-01   3.70000000000000E-01   0.00000000000000E+00   0.00000000000000E+00
      3.18910323562839E-10  -3.98163515682339E-15   3.18906341927682E-10   1.96383122400832E-17   0.00000000000000E+00
      0.00000000000000E+00   0.00000000000000E+00   0.00000000000000E+00   0.00000000000000E+00   0.00000000000000E+00
      0.00000000000000E+00  -3.55559223416697E-17
      2.90000000000000E-01
      0.00000000000000E+00   0.00000000000000E+00   0.00000000000000E+00   0.00000000000000E+00  -1.29970000284857E-13
     -3.13996365658117E-10  -3.14126335658402E-10  -9.77400520376389E-18   1.16000000000000E-01   1.16000000000000E-01
      0.00000000000000E+00   0.00000000000000E+00   0.00000000000000E+00   0.00000000000000E+00   0.00000000000000E+00
      2.67831057539445E-17   3.70000000000000E-01   3.70000000000000E-01   0.00000000000000E+00   0.00000000000000E+00
      3.14129460745812E-10  -3.12508741008034E-15   3.14126335658402E-10   1.95956580053789E-17   0.00000000000000E+00
      0.00000000000000E+00   0.00000000000000E+00   0.00000000000000E+00   0.00000000000000E+00   0.00000000000000E+00
      0.00000000000000E+00  -3.66047585555596E-17
      3.00000000000000E-01
      0.00000000000000E+00   0.00000000000000E+00   0.00000000000000E+00   0.00000000000000E+00  -1.31078096248325E-13
     -3.09513627080525E-10  -3.09644705176773E-10  -9.81940961672588E-18   1.20000000000000E-01   1.20000000000000E-01
      0.00000000000000E+00   0.00000000000000E+00   0.00000000000000E+00   0.00000000000000E+00   0.00000000000000E+00
      2.79200292200678E-17   3.70000000000000E-01   3.70000000000000E-01   0.00000000000000E+00   0.00000000000000E+00
      3.09647029424310E-10  -2.32424753611128E-15   3.09644705176773E-10   1.95530034442988E-17   0.00000000000000E+00
      0.00000000000000E+00   0.00000000000000E+00   0.00000000000000E+00   0.00000000000000E+00   0.00000000000000E+00
      0.00000000000000E+00  -3.76536230476408E-17
      3.10000000000000E-01
      0.00000000000000E+00   0.00000000000000E+00   0.00000000000000E+00   0.00000000000000E+00  -1.32190192010911E-13
     -3.05319021904371E-10  -3.05451212096382E-10  -9.86475839702268E-18   1.24000000000000E-01   1.24000000000000E-01
      0.00000000000000E+00   0.00000000000000E+00   0.00000000000000E+00   0.00000000000000E+00   0.00000000000000E+00
      2.90569250719647E-17   3.70000000000000E-01   3.70000000000000E-01   0.00000000000000E+00   0.00000000000000E+00
      3.05452787990181E-10  -1.57589379898266E-15   3.05451212096382E-10   1.95103484810893E-17   0.00000000000000E+00
      0.00000000000000E+00   0.00000000000000E+00   0.00000000000000E+00   0.00000000000000E+00   0.00000000000000E+00
      0.00000000000000E+00  -3.87025151560313E-17
      3.20000000000000E-01
      0.00000000000000E+00   0.00000000000000E+00   0.00000000000000E+00   0.00000000000000E+00  -1.33306251462299E-13
     -3.01402787098258E-10  -3.01536093349721E-10  -9.91005276451047E-18   1.28000000000000E-01   1.28000000000000E-01
      0.00000000000000E+00   0.00000000000000E+00   0.00000000000000E+00   0.00000000000000E+00   0.00000000000000E+00
      3.01937939557905E-17   3.70000000000000E-01   3.70000000000000E-01   0.00000000000000E+00   0.00000000000000E+00
      3.01536970320570E-10  -8.76970849623217E-16   3.01536093349721E-10   1.94676930441249E-17   0.00000000000000E+00
      0.00000000000000E+00   0.00000000000000E+00   0.00000000000000E+00   0.00000000000000E+00   0.00000000000000E+00
      0.00000000000000E+00  -3.97514342354049E-17
      3.30000000000000E-01
      0.00000000000000E+00   0.00000000000000E+00   0.00000000000000E+00   0.00000000000000E+00  -1.34426238440262E-13
     -2.97755618003312E-10  -2.97890044241753E-10  -9.95529391059833E-18   1.32000000000000E-01   1.32000000000000E-01
      0.00000000000000E+00   0.00000000000000E+00   0.00000000000000E+00   0.00000000000000E+00   0.00000000000000E+00
      3.13306365015105E-17   3.70000000000000E-01   3.70000000000000E-01   0.00000000000000E+00   0.00000000000000E+00
      2.97890268826383E-10  -2.24584630020418E-16   2.97890044241753E-10   1.94250370655889E-17   0.00000000000000E+00
      0.00000000000000E+00   0.00000000000000E+00   0.00000000000000E+00   0.00000000000000E+00   0.00000000000000E+00
      0.00000000000000E+00  -4.08003796565010E-17
      3.40000000000000E-01
      0.00000000000000E+00   0.00000000000000E+00   0.00000000000000E+00   0.00000000000000E+00  -1.35550116749008E-13
     -2.94368652054089E-10  -2.94504202170838E-10  -1.00004829989092E-17   1.36000000000000E-01   1.36000000000000E-01
      0.00000000000000E+00   0.00000000000000E+00   0.00000000000000E+00   0.00000000000000E+00   0.00000000000000E+00
      3.24674533233852E-17   3.70000000000000E-01   3.70000000000000E-01   0.00000000000000E+00   0.00000000000000E+00
      2.94503818164868E-10   3.84005970308767E-16   2.94504202170838E-10   1.93823804811775E-17   0.00000000000000E+00
      0.00000000000000E+00   0.00000000000000E+00   0.00000000000000E+00   0.00000000000000E+00   0.00000000000000E+00
      0.00000000000000E+00  -4.18493508056535E-17
      3.50000000000000E-01
      0.00000000000000E+00   0.00000000000000E+00   0.00000000000000E+00   0.00000000000000E+00  -1.36677850177466E-13
     -2.91233453164363E-10  -2.91370131014540E-10  -1.00456211659273E-17   1.40000000000000E-01   1.40000000000000E-01
      0.00000000000000E+00   0.00000000000000E+00   0.00000000000000E+00   0.00000000000000E+00   0.00000000000000E+00
      3.36042450204377E-17   3.70000000000000E-01   3.70000000000000E-01   0.00000000000000E+00   0.00000000000000E+00
      2.91369179618055E-10   9.51396484628534E-16   2.91370131014540E-10   1.93397232298249E-17   0.00000000000000E+00
      0.00000000000000E+00   0.00000000000000E+00   0.00000000000000E+00   0.00000000000000E+00   0.00000000000000E+00
      0.00000000000000E+00  -4.28983470843353E-17
      3.60000000000000E-01
      0.00000000000000E+00   0.00000000000000E+00   0.00000000000000E+00   0.00000000000000E+00  -1.37809402517529E-13
     -2.88341996780263E-10  -2.88479806182781E-10  -1.00907095216311E-17   1.44000000000000E-01   1.44000000000000E-01
      0.00000000000000E+00   0.00000000000000E+00   0.00000000000000E+00   0.00000000000000E+00   0.00000000000000E+00
      3.47410121769029E-17   3.70000000000000E-01   3.70000000000000E-01   0.00000000000000E+00   0.00000000000000E+00
      2.88478326138784E-10   1.48004399737666E-15   2.88479806182781E-10   1.92970652534484E-17   0.00000000000000E+00
      0.00000000000000E+00   0.00000000000000E+00   0.00000000000000E+00   0.00000000000000E+00   0.00000000000000E+00
      0.00000000000000E+00  -4.39473679087201E-17
      3.70000000000000E-01
      0.00000000000000E+00   0.00000000000000E+00   0.00000000000000E+00   0.00000000000000E+00  -1.38944737582259E-13