DF-ISE text

Info {
  version   = 1.0
  type      = xyplot
  datasets  = [
    "time"
    "source OuterVoltage" "source InnerVoltage" "source QuasiFermiPotential" "source DisplacementCurrent" "source eCurrent"
    "source hCurrent" "source TotalCurrent" "source Charge" "topGate OuterVoltage" "topGate InnerVoltage"
    "topGate QuasiFermiPotential" "topGate DisplacementCurrent" "topGate eCurrent" "topGate hCurrent" "topGate TotalCurrent"
    "topGate Charge" "drain OuterVoltage" "drain InnerVoltage" "drain QuasiFermiPotential" "drain DisplacementCurrent"
    "drain eCurrent" "drain hCurrent" "drain TotalCurrent" "drain Charge" "bottomGate OuterVoltage"
    "bottomGate InnerVoltage" "bottomGate QuasiFermiPotential" "bottomGate DisplacementCurrent" "bottomGate eCurrent" "bottomGate hCurrent"
    "bottomGate TotalCurrent" "bottomGate Charge" ]
  functions = [
    Time
    OuterVoltage InnerVoltage QuasiFermiPotential DisplacementCurrent eCurrent
    hCurrent TotalCurrent Charge OuterVoltage InnerVoltage
    QuasiFermiPotential DisplacementCurrent eCurrent hCurrent TotalCurrent
    Charge OuterVoltage InnerVoltage QuasiFermiPotential DisplacementCurrent
    eCurrent hCurrent TotalCurrent Charge OuterVoltage
    InnerVoltage QuasiFermiPotential DisplacementCurrent eCurrent hCurrent
    TotalCurrent Charge ]
}

Data {
      1.00000000000000E-02
      0.00000000000000E+00   0.00000000000000E+00   0.00000000000000E+00   0.00000000000000E+00  -2.04838009072866E-13
     -8.05027550206602E-11  -8.07075930297331E-11  -1.25175884504549E-17   4.00000000000000E-03   4.00000000000000E-03
      0.00000000000000E+00   0.00000000000000E+00   0.00000000000000E+00   0.00000000000000E+00   0.00000000000000E+00
     -9.76578181224951E-17   2.00000000000000E-01   2.00000000000000E-01   0.00000000000000E+00   0.00000000000000E+00
      8.07027721209110E-11   4.82090882202481E-15   8.07075930297330E-11   1.32980755823760E-17   3.60000000000000E-01
      3.60000000000000E-01   0.00000000000000E+00   0.00000000000000E+00   0.00000000000000E+00   0.00000000000000E+00
      0.00000000000000E+00   9.68773309905741E-17
      2.00000000000000E-02
      0.00000000000000E+00   0.00000000000000E+00   0.00000000000000E+00   0.00000000000000E+00  -2.06136023728581E-13
     -7.52556723890490E-11  -7.54618084127776E-11  -1.25610659405878E-17   8.00000000000000E-03   8.00000000000000E-03
      0.00000000000000E+00   0.00000000000000E+00   0.00000000000000E+00   0.00000000000000E+00   0.00000000000000E+00
     -9.65215579797353E-17   2.00000000000000E-01   2.00000000000000E-01   0.00000000000000E+00   0.00000000000000E+00
      7.54570152483899E-11   4.79316438760524E-15   7.54618084127776E-11   1.32548210086624E-17   3.60000000000000E-01
      3.60000000000000E-01   0.00000000000000E+00   0.00000000000000E+00   0.00000000000000E+00   0.00000000000000E+00
      0.00000000000000E+00   9.58278029116607E-17
      3.00000000000000E-02
      0.00000000000000E+00   0.00000000000000E+00   0.00000000000000E+00   0.00000000000000E+00  -2.07435821953569E-13
     -7.03610954384045E-11  -7.05685312603581E-11  -1.26045281933169E-17   1.20000000000000E-02   1.20000000000000E-02
      0.00000000000000E+00   0.00000000000000E+00   0.00000000000000E+00   0.00000000000000E+00   0.00000000000000E+00
     -9.53852998442353E-17   2.00000000000000E-01   2.00000000000000E-01   0.00000000000000E+00   0.00000000000000E+00
      7.05637657838063E-11   4.76547655181735E-15   7.05685312603581E-11   1.32115552084999E-17   3.60000000000000E-01
      3.60000000000000E-01   0.00000000000000E+00   0.00000000000000E+00   0.00000000000000E+00   0.00000000000000E+00
      0.00000000000000E+00   9.47782728290522E-17
      4.00000000000000E-02
      0.00000000000000E+00   0.00000000000000E+00   0.00000000000000E+00   0.00000000000000E+00  -2.08737408565085E-13
     -6.57975033046984E-11  -6.60062407132635E-11  -1.26479755008052E-17   1.60000000000000E-02   1.60000000000000E-02
      0.00000000000000E+00   0.00000000000000E+00   0.00000000000000E+00   0.00000000000000E+00   0.00000000000000E+00
     -9.42490434633145E-17   2.00000000000000E-01   2.00000000000000E-01   0.00000000000000E+00   0.00000000000000E+00
      6.60015028681818E-11   4.73784508170574E-15   6.60062407132635E-11   1.31682779689360E-17   3.60000000000000E-01
      3.60000000000000E-01   0.00000000000000E+00   0.00000000000000E+00   0.00000000000000E+00   0.00000000000000E+00
      0.00000000000000E+00   9.37287409951837E-17
      5.00000000000000E-02
      0.00000000000000E+00   0.00000000000000E+00   0.00000000000000E+00   0.00000000000000E+00  -2.10040786296629E-13
     -6.15444787057935E-11  -6.17545194920901E-11  -1.26914081488467E-17   2.00000000000000E-02   2.00000000000000E-02
      0.00000000000000E+00   0.00000000000000E+00   0.00000000000000E+00   0.00000000000000E+00   0.00000000000000E+00
     -9.31127885852622E-17   2.00000000000000E-01   2.00000000000000E-01   0.00000000000000E+00   0.00000000000000E+00
      6.17498092224021E-11   4.71026968797136E-15   6.17545194920901E-11   1.31249890725689E-17   3.60000000000000E-01
      3.60000000000000E-01   0.00000000000000E+00   0.00000000000000E+00   0.00000000000000E+00   0.00000000000000E+00
      0.00000000000000E+00   9.26792076615400E-17
      6.00000000000000E-02
      0.00000000000000E+00   0.00000000000000E+00   0.00000000000000E+00   0.00000000000000E+00  -2.11345955987767E-13
     -5.75826645640663E-11  -5.77940105200540E-11  -1.27348264170174E-17   2.40000000000000E-02   2.40000000000000E-02
      0.00000000000000E+00   0.00000000000000E+00   0.00000000000000E+00   0.00000000000000E+00   0.00000000000000E+00
     -9.19765349592022E-17   2.00000000000000E-01   2.00000000000000E-01   0.00000000000000E+00   0.00000000000000E+00
      5.77893277700419E-11   4.68275001226018E-15   5.77940105200541E-11   1.30816882974293E-17   3.60000000000000E-01
      3.60000000000000E-01   0.00000000000000E+00   0.00000000000000E+00   0.00000000000000E+00   0.00000000000000E+00
      0.00000000000000E+00   9.16296730787902E-17
      7.00000000000000E-02
      0.00000000000000E+00   0.00000000000000E+00   0.00000000000000E+00   0.00000000000000E+00  -2.12652916762755E-13
     -5.38937218294035E-11  -5.41063747461663E-11  -1.27782305788226E-17   2.80000000000000E-02   2.80000000000000E-02
      0.00000000000000E+00   0.00000000000000E+00   0.00000000000000E+00   0.00000000000000E+00   0.00000000000000E+00
     -9.08402823349575E-17   2.00000000000000E-01   2.00000000000000E-01   0.00000000000000E+00   0.00000000000000E+00
      5.41017194605286E-11   4.65528563771778E-15   5.41063747461663E-11   1.30383754168587E-17   3.60000000000000E-01
      3.60000000000000E-01   0.00000000000000E+00   0.00000000000000E+00   0.00000000000000E+00   0.00000000000000E+00
      0.00000000000000E+00   9.05801374969214E-17
      8.00000000000000E-02
      0.00000000000000E+00   0.00000000000000E+00   0.00000000000000E+00   0.00000000000000E+00  -2.13961666190524E-13
     -5.04602884632867E-11  -5.06742501294772E-11  -1.28216209018405E-17   3.20000000000000E-02   3.20000000000000E-02
      0.00000000000000E+00   0.00000000000000E+00   0.00000000000000E+00   0.00000000000000E+00   0.00000000000000E+00
     -8.97040304629165E-17   2.00000000000000E-01   2.00000000000000E-01   0.00000000000000E+00   0.00000000000000E+00
      5.06696222533769E-11   4.62787610032346E-15   5.06742501294772E-11   1.29950501993860E-17   3.60000000000000E-01
      3.60000000000000E-01   0.00000000000000E+00   0.00000000000000E+00   0.00000000000000E+00   0.00000000000000E+00
      0.00000000000000E+00   8.95306011653710E-17
      9.00000000000000E-02
      0.00000000000000E+00   0.00000000000000E+00   0.00000000000000E+00   0.00000000000000E+00  -2.15272200433012E-13
     -4.72659395495177E-11  -4.74812117499507E-11  -1.28649976478623E-17   3.60000000000000E-02   3.60000000000000E-02
      0.00000000000000E+00   0.00000000000000E+00   0.00000000000000E+00   0.00000000000000E+00   0.00000000000000E+00
     -8.85677790938996E-17   2.00000000000000E-01   2.00000000000000E-01   0.00000000000000E+00   0.00000000000000E+00
      4.74766112290790E-11   4.60052087174050E-15   4.74812117499507E-11   1.29517124086018E-17   3.60000000000000E-01
      3.60000000000000E-01   0.00000000000000E+00   0.00000000000000E+00   0.00000000000000E+00   0.00000000000000E+00
      0.00000000000000E+00   8.84810643331600E-17
      1.00000000000000E-01
      0.00000000000000E+00   0.00000000000000E+00   0.00000000000000E+00   0.00000000000000E+00  -2.16584514380144E-13
     -4.42951485015644E-11  -4.45117330159445E-11  -1.29083610730289E-17   4.00000000000000E-02   4.00000000000000E-02
      0.00000000000000E+00   0.00000000000000E+00   0.00000000000000E+00   0.00000000000000E+00   0.00000000000000E+00
     -8.74315279790256E-17   2.00000000000000E-01   2.00000000000000E-01   0.00000000000000E+00   0.00000000000000E+00
      4.45071597965643E-11   4.57321938021249E-15   4.45117330159446E-11   1.29083618030298E-17   3.60000000000000E-01
      3.60000000000000E-01   0.00000000000000E+00   0.00000000000000E+00   0.00000000000000E+00   0.00000000000000E+00
      0.00000000000000E+00   8.74315272490246E-17
      1.10000000000000E-01
      0.00000000000000E+00   0.00000000000000E+00   0.00000000000000E+00   0.00000000000000E+00  -2.17898601774359E-13
     -4.15332493401567E-11  -4.17511479419310E-11  -1.29517114279638E-17   4.40000000000000E-02   4.40000000000000E-02
      0.00000000000000E+00   0.00000000000000E+00   0.00000000000000E+00   0.00000000000000E+00   0.00000000000000E+00
     -8.62952768695797E-17   2.00000000000000E-01   2.00000000000000E-01   0.00000000000000E+00   0.00000000000000E+00
      4.17466019709223E-11   4.54597100875254E-15   4.17511479419310E-11   1.28649981359959E-17   3.60000000000000E-01
      3.60000000000000E-01   0.00000000000000E+00   0.00000000000000E+00   0.00000000000000E+00   0.00000000000000E+00
      0.00000000000000E+00   8.63819901615476E-17
      1.20000000000000E-01
      0.00000000000000E+00   0.00000000000000E+00   0.00000000000000E+00   0.00000000000000E+00  -2.19214455323668E-13
     -3.89664000181733E-11  -3.91856144734970E-11  -1.29950489579035E-17   4.80000000000000E-02   4.80000000000000E-02
      0.00000000000000E+00   0.00000000000000E+00   0.00000000000000E+00   0.00000000000000E+00   0.00000000000000E+00
     -8.51590255168809E-17   2.00000000000000E-01   2.00000000000000E-01   0.00000000000000E+00   0.00000000000000E+00
      3.91810956984018E-11   4.51877509516347E-15   3.91856144734969E-11   1.28216211554937E-17   3.60000000000000E-01
      3.60000000000000E-01   0.00000000000000E+00   0.00000000000000E+00   0.00000000000000E+00   0.00000000000000E+00
      0.00000000000000E+00   8.53324533192906E-17
      1.30000000000000E-01
      0.00000000000000E+00   0.00000000000000E+00   0.00000000000000E+00   0.00000000000000E+00  -2.20532066805949E-13
     -3.65815467726982E-11  -3.68020788395042E-11  -1.30383739028235E-17   5.20000000000000E-02   5.20000000000000E-02
      0.00000000000000E+00   0.00000000000000E+00   0.00000000000000E+00   0.00000000000000E+00   0.00000000000000E+00
     -8.40227736721494E-17   2.00000000000000E-01   2.00000000000000E-01   0.00000000000000E+00   0.00000000000000E+00
      3.67975872085594E-11   4.49163094484876E-15   3.68020788395042E-11   1.27782306040479E-17   3.60000000000000E-01
      3.60000000000000E-01   0.00000000000000E+00   0.00000000000000E+00   0.00000000000000E+00   0.00000000000000E+00
      0.00000000000000E+00   8.42829169709250E-17
      1.40000000000000E-01
      0.00000000000000E+00   0.00000000000000E+00   0.00000000000000E+00   0.00000000000000E+00  -2.21851427163594E-13
     -3.43663894865489E-11  -3.45882409137125E-11  -1.30816864975622E-17   5.60000000000000E-02   5.60000000000000E-02
      0.00000000000000E+00   0.00000000000000E+00   0.00000000000000E+00   0.00000000000000E+00   0.00000000000000E+00
     -8.28865210863754E-17   2.00000000000000E-01   2.00000000000000E-01   0.00000000000000E+00   0.00000000000000E+00
      3.45837763758867E-11   4.46453782570573E-15   3.45882409137124E-11   1.27348262185745E-17   3.60000000000000E-01
      3.60000000000000E-01   0.00000000000000E+00   0.00000000000000E+00   0.00000000000000E+00   0.00000000000000E+00
      0.00000000000000E+00   8.32333813653631E-17
      1.50000000000000E-01
      0.00000000000000E+00   0.00000000000000E+00   0.00000000000000E+00   0.00000000000000E+00  -2.23172526590336E-13
     -3.23093480437070E-11  -3.25325205702973E-11  -1.31249869719417E-17   6.00000000000000E-02   6.00000000000000E-02
      0.00000000000000E+00   0.00000000000000E+00   0.00000000000000E+00   0.00000000000000E+00   0.00000000000000E+00
     -8.17502675101857E-17   2.00000000000000E-01   2.00000000000000E-01   0.00000000000000E+00   0.00000000000000E+00
      3.25280830753145E-11   4.43749498275569E-15   3.25325205702973E-11   1.26914077302372E-17   3.60000000000000E-01
      3.60000000000000E-01   0.00000000000000E+00   0.00000000000000E+00   0.00000000000000E+00   0.00000000000000E+00
      0.00000000000000E+00   8.21838467518903E-17
      1.60000000000000E-01
      0.00000000000000E+00   0.00000000000000E+00   0.00000000000000E+00   0.00000000000000E+00  -2.24495354612159E-13
     -3.03995296647505E-11  -3.06240250193627E-11  -1.31682755508846E-17   6.40000000000000E-02   6.40000000000000E-02
      0.00000000000000E+00   0.00000000000000E+00   0.00000000000000E+00   0.00000000000000E+00   0.00000000000000E+00
     -8.06140126937125E-17   2.00000000000000E-01   2.00000000000000E-01   0.00000000000000E+00   0.00000000000000E+00
      3.06196145177235E-11   4.41050163920043E-15   3.06240250193627E-11   1.26479748643009E-17   3.60000000000000E-01
      3.60000000000000E-01   0.00000000000000E+00   0.00000000000000E+00   0.00000000000000E+00   0.00000000000000E+00
      0.00000000000000E+00   8.11343133802962E-17
      1.70000000000000E-01
      0.00000000000000E+00   0.00000000000000E+00   0.00000000000000E+00   0.00000000000000E+00  -2.25819900157881E-13
     -2.86266972098472E-11  -2.88525171100051E-11  -1.32115524545289E-17   6.80000000000000E-02   6.80000000000000E-02
      0.00000000000000E+00   0.00000000000000E+00   0.00000000000000E+00   0.00000000000000E+00   0.00000000000000E+00
     -7.94777563864602E-17   2.00000000000000E-01   2.00000000000000E-01   0.00000000000000E+00   0.00000000000000E+00
      2.88481335530066E-11   4.38355699846932E-15   2.88525171100051E-11   1.26045273399824E-17   3.60000000000000E-01
      3.60000000000000E-01   0.00000000000000E+00   0.00000000000000E+00   0.00000000000000E+00   0.00000000000000E+00
      0.00000000000000E+00   8.00847815010068E-17
      1.80000000000000E-01
      0.00000000000000E+00   0.00000000000000E+00   0.00000000000000E+00   0.00000000000000E+00  -2.27146151627811E-13
     -2.69812384380020E-11  -2.72083845896298E-11  -1.32548178983400E-17   7.20000000000000E-02   7.20000000000000E-02
      0.00000000000000E+00   0.00000000000000E+00   0.00000000000000E+00   0.00000000000000E+00   0.00000000000000E+00
     -7.83414983371728E-17   2.00000000000000E-01   2.00000000000000E-01   0.00000000000000E+00   0.00000000000000E+00
      2.72040279293717E-11   4.35666025807991E-15   2.72083845896298E-11   1.25610648702960E-17   3.60000000000000E-01
      3.60000000000000E-01   0.00000000000000E+00   0.00000000000000E+00   0.00000000000000E+00   0.00000000000000E+00
      0.00000000000000E+00   7.90352513652168E-17
      1.90000000000000E-01
      0.00000000000000E+00   0.00000000000000E+00   0.00000000000000E+00   0.00000000000000E+00  -2.28474096953001E-13
     -2.54541362121013E-11  -2.56826103090543E-11  -1.32980720932191E-17   7.60000000000000E-02   7.60000000000000E-02
      0.00000000000000E+00   0.00000000000000E+00   0.00000000000000E+00   0.00000000000000E+00   0.00000000000000E+00
     -7.72052382937002E-17   2.00000000000000E-01   2.00000000000000E-01   0.00000000000000E+00   0.00000000000000E+00
      2.56782804984470E-11   4.32981060730310E-15   2.56826103090543E-11   1.25175871618971E-17   3.60000000000000E-01
      3.60000000000000E-01   0.00000000000000E+00   0.00000000000000E+00   0.00000000000000E+00   0.00000000000000E+00
      0.00000000000000E+00   7.79857232250223E-17
      2.00000000000000E-01
      0.00000000000000E+00   0.00000000000000E+00   0.00000000000000E+00   0.00000000000000E+00  -2.29803723651261E-13
     -2.40369396400156E-11  -2.42667433636668E-11  -1.33413152456100E-17   8.00000000000000E-02   8.00000000000000E-02
      0.00000000000000E+00   0.00000000000000E+00   0.00000000000000E+00   0.00000000000000E+00   0.00000000000000E+00
     -7.60689760028650E-17   2.00000000000000E-01   2.00000000000000E-01   0.00000000000000E+00   0.00000000000000E+00
      2.42624403564272E-11   4.30300723956391E-15   2.42667433636668E-11   1.24740939149206E-17   3.60000000000000E-01
      3.60000000000000E-01   0.00000000000000E+00   0.00000000000000E+00   0.00000000000000E+00   0.00000000000000E+00
      0.00000000000000E+00   7.69361973335544E-17
      2.10000000000000E-01
      0.00000000000000E+00   0.00000000000000E+00   0.00000000000000E+00   0.00000000000000E+00  -2.31135018878315E-13
     -2.27217361424317E-11  -2.29528711613100E-11  -1.33845475576025E-17   8.40000000000000E-02   8.40000000000000E-02
      0.00000000000000E+00   0.00000000000000E+00   0.00000000000000E+00   0.00000000000000E+00   0.00000000000000E+00
     -7.49327112103271E-17   2.00000000000000E-01   2.00000000000000E-01   0.00000000000000E+00   0.00000000000000E+00
      2.29485949119548E-11   4.27624935523116E-15   2.29528711613101E-11   1.24305848228165E-17   3.60000000000000E-01
      3.60000000000000E-01   0.00000000000000E+00   0.00000000000000E+00   0.00000000000000E+00   0.00000000000000E+00
      0.00000000000000E+00   7.58866739451131E-17
      2.20000000000000E-01
      0.00000000000000E+00   0.00000000000000E+00   0.00000000000000E+00   0.00000000000000E+00  -2.32467969472753E-13
     -2.15011244384221E-11  -2.17335924078949E-11  -1.34277692270333E-17   8.80000000000000E-02   8.80000000000000E-02
      0.00000000000000E+00   0.00000000000000E+00   0.00000000000000E+00   0.00000000000000E+00   0.00000000000000E+00
     -7.37964436604493E-17   2.00000000000000E-01   2.00000000000000E-01   0.00000000000000E+00   0.00000000000000E+00
      2.17293428717261E-11   4.24953616883469E-15   2.17335924078949E-11   1.23870595721805E-17   3.60000000000000E-01
      3.60000000000000E-01   0.00000000000000E+00   0.00000000000000E+00   0.00000000000000E+00   0.00000000000000E+00
      0.00000000000000E+00   7.48371533153021E-17
      2.30000000000000E-01
      0.00000000000000E+00   0.00000000000000E+00   0.00000000000000E+00   0.00000000000000E+00  -2.33802561999582E-13
     -2.03681884398701E-11  -2.06019910018697E-11  -1.34709804475852E-17   9.20000000000000E-02   9.20000000000000E-02
      0.00000000000000E+00   0.00000000000000E+00   0.00000000000000E+00   0.00000000000000E+00   0.00000000000000E+00
     -7.26601730961606E-17   2.00000000000000E-01   2.00000000000000E-01   0.00000000000000E+00   0.00000000000000E+00
      2.05977681349554E-11   4.22286691426920E-15   2.06019910018697E-11   1.23435178425808E-17   3.60000000000000E-01
      3.60000000000000E-01   0.00000000000000E+00   0.00000000000000E+00   0.00000000000000E+00   0.00000000000000E+00
      0.00000000000000E+00   7.37876357011649E-17
      2.40000000000000E-01
      0.00000000000000E+00   0.00000000000000E+00   0.00000000000000E+00   0.00000000000000E+00  -2.35138782787587E-13
     -1.93164720459004E-11  -1.95516108286880E-11  -1.35141814088825E-17   9.60000000000000E-02   9.60000000000000E-02
      0.00000000000000E+00   0.00000000000000E+00   0.00000000000000E+00   0.00000000000000E+00   0.00000000000000E+00
     -7.15238992588192E-17   2.00000000000000E-01   2.00000000000000E-01   0.00000000000000E+00   0.00000000000000E+00
      1.95474145878350E-11   4.19624085303540E-15   1.95516108286880E-11   1.22999593063808E-17   3.60000000000000E-01
      3.60000000000000E-01   0.00000000000000E+00   0.00000000000000E+00   0.00000000000000E+00   0.00000000000000E+00
      0.00000000000000E+00   7.27381213613209E-17
      2.50000000000000E-01
      0.00000000000000E+00   0.00000000000000E+00   0.00000000000000E+00   0.00000000000000E+00  -2.36476617964623E-13
     -1.83399548283471E-11  -1.85764314463117E-11  -1.35573722965854E-17   1.00000000000000E-01   1.00000000000000E-01
      0.00000000000000E+00   0.00000000000000E+00   0.00000000000000E+00   0.00000000000000E+00   0.00000000000000E+00
     -7.03876218880748E-17   2.00000000000000E-01   2.00000000000000E-01   0.00000000000000E+00   0.00000000000000E+00
      1.85722617890341E-11   4.16965727755374E-15   1.85764314463117E-11   1.22563836285566E-17   3.60000000000000E-01
      3.60000000000000E-01   0.00000000000000E+00   0.00000000000000E+00   0.00000000000000E+00   0.00000000000000E+00
      0.00000000000000E+00   7.16886105561035E-17
      2.60000000000000E-01
      0.00000000000000E+00   0.00000000000000E+00   0.00000000000000E+00   0.00000000000000E+00  -2.37816053489393E-13
     -1.74330285991116E-11  -1.76708446526010E-11  -1.36005532924811E-17   1.04000000000000E-01   1.04000000000000E-01
      0.00000000000000E+00   0.00000000000000E+00   0.00000000000000E+00   0.00000000000000E+00   0.00000000000000E+00
     -6.92513407217288E-17   2.00000000000000E-01   2.00000000000000E-01   0.00000000000000E+00   0.00000000000000E+00
      1.76667015370795E-11   4.14311552148010E-15   1.76708446526010E-11   1.22127904665108E-17   3.60000000000000E-01
      3.60000000000000E-01   0.00000000000000E+00   0.00000000000000E+00   0.00000000000000E+00   0.00000000000000E+00
      0.00000000000000E+00   7.06391035476991E-17
      2.70000000000000E-01
      0.00000000000000E+00   0.00000000000000E+00   0.00000000000000E+00   0.00000000000000E+00  -2.39157075179807E-13
     -1.65904748499621E-11  -1.68296319251419E-11  -1.36437245745730E-17   1.08000000000000E-01   1.08000000000000E-01
      0.00000000000000E+00   0.00000000000000E+00   0.00000000000000E+00   0.00000000000000E+00   0.00000000000000E+00
     -6.81150554955943E-17   2.00000000000000E-01   2.00000000000000E-01   0.00000000000000E+00   0.00000000000000E+00
      1.68255153101833E-11   4.11661495860588E-15   1.68296319251419E-11   1.21691794698805E-17   3.60000000000000E-01
      3.60000000000000E-01   0.00000000000000E+00   0.00000000000000E+00   0.00000000000000E+00   0.00000000000000E+00
      0.00000000000000E+00   6.95896006002868E-17
      2.80000000000000E-01
      0.00000000000000E+00   0.00000000000000E+00   0.00000000000000E+00   0.00000000000000E+00  -2.40499668740308E-13
     -1.58074430550257E-11  -1.60479427237660E-11  -1.36868863171682E-17   1.12000000000000E-01   1.12000000000000E-01
      0.00000000000000E+00   0.00000000000000E+00   0.00000000000000E+00   0.00000000000000E+00   0.00000000000000E+00
     -6.69787659433537E-17   2.00000000000000E-01   2.00000000000000E-01   0.00000000000000E+00   0.00000000000000E+00
      1.60438525687490E-11   4.09015501696117E-15   1.60479427237660E-11   1.21255502803411E-17   3.60000000000000E-01
      3.60000000000000E-01   0.00000000000000E+00   0.00000000000000E+00   0.00000000000000E+00   0.00000000000000E+00
      0.00000000000000E+00   6.85401019801808E-17
      2.90000000000000E-01
      0.00000000000000E+00   0.00000000000000E+00   0.00000000000000E+00   0.00000000000000E+00  -2.41843819785294E-13
     -1.50794298257716E-11  -1.53212736455569E-11  -1.37300386909618E-17   1.16000000000000E-01   1.16000000000000E-01
      0.00000000000000E+00   0.00000000000000E+00   0.00000000000000E+00   0.00000000000000E+00   0.00000000000000E+00
     -6.58424717964157E-17   2.00000000000000E-01   2.00000000000000E-01   0.00000000000000E+00   0.00000000000000E+00
      1.53172099103794E-11   4.06373517757589E-15   1.53212736455569E-11   1.20819025314049E-17   3.60000000000000E-01
      3.60000000000000E-01   0.00000000000000E+00   0.00000000000000E+00   0.00000000000000E+00   0.00000000000000E+00
      0.00000000000000E+00   6.74906079559726E-17
      3.00000000000000E-01
      0.00000000000000E+00   0.00000000000000E+00   0.00000000000000E+00   0.00000000000000E+00  -2.43189513858166E-13
     -1.44022589079053E-11  -1.46454484217634E-11  -1.37731818631200E-17   1.20000000000000E-01   1.20000000000000E-01
      0.00000000000000E+00   0.00000000000000E+00   0.00000000000000E+00   0.00000000000000E+00   0.00000000000000E+00
     -6.47061727837703E-17   2.00000000000000E-01   2.00000000000000E-01   0.00000000000000E+00   0.00000000000000E+00
      1.46414110667824E-11   4.03735498106699E-15   1.46454484217634E-11   1.20382358482142E-17   3.60000000000000E-01
      3.60000000000000E-01   0.00000000000000E+00   0.00000000000000E+00   0.00000000000000E+00   0.00000000000000E+00
      0.00000000000000E+00   6.64411187986761E-17
      3.10000000000000E-01
      0.00000000000000E+00   0.00000000000000E+00   0.00000000000000E+00   0.00000000000000E+00  -2.44536736455198E-13
     -1.37720620090905E-11  -1.40165987455457E-11  -1.38163159973607E-17   1.24000000000000E-01   1.24000000000000E-01
      0.00000000000000E+00   0.00000000000000E+00   0.00000000000000E+00   0.00000000000000E+00   0.00000000000000E+00
     -6.35698686318421E-17   2.00000000000000E-01   2.00000000000000E-01   0.00000000000000E+00   0.00000000000000E+00
      1.40125877315103E-11   4.01101403534765E-15   1.40165987455457E-11   1.19945498473290E-17   3.60000000000000E-01
      3.60000000000000E-01   0.00000000000000E+00   0.00000000000000E+00   0.00000000000000E+00   0.00000000000000E+00
      0.00000000000000E+00   6.53916347818739E-17
      3.20000000000000E-01
      0.00000000000000E+00   0.00000000000000E+00   0.00000000000000E+00   0.00000000000000E+00  -2.45885473038402E-13
     -1.31852604459296E-11  -1.34311459189680E-11  -1.38594412540327E-17   1.28000000000000E-01   1.28000000000000E-01
      0.00000000000000E+00   0.00000000000000E+00   0.00000000000000E+00   0.00000000000000E+00   0.00000000000000E+00
     -6.24335590643419E-17   2.00000000000000E-01   2.00000000000000E-01   0.00000000000000E+00   0.00000000000000E+00
      1.34271612069527E-11   3.98471201537160E-15   1.34311459189680E-11   1.19508441365095E-17   3.60000000000000E-01
      3.60000000000000E-01   0.00000000000000E+00   0.00000000000000E+00   0.00000000000000E+00   0.00000000000000E+00
      0.00000000000000E+00   6.43421561818651E-17
      3.30000000000000E-01
      0.00000000000000E+00   0.00000000000000E+00   0.00000000000000E+00   0.00000000000000E+00  -2.47235709054903E-13
     -1.26385475981522E-11  -1.28857833072071E-11  -1.39025577901919E-17   1.32000000000000E-01   1.32000000000000E-01
      0.00000000000000E+00   0.00000000000000E+00   0.00000000000000E+00   0.00000000000000E+00   0.00000000000000E+00
     -6.12972438021163E-17   2.00000000000000E-01   2.00000000000000E-01   0.00000000000000E+00   0.00000000000000E+00
      1.28818248585363E-11   3.95844867080577E-15   1.28857833072072E-11   1.19071183144923E-17   3.60000000000000E-01
      3.60000000000000E-01   0.00000000000000E+00   0.00000000000000E+00   0.00000000000000E+00   0.00000000000000E+00
      0.00000000000000E+00   6.32926832778158E-17
      3.40000000000000E-01
      0.00000000000000E+00   0.00000000000000E+00   0.00000000000000E+00   0.00000000000000E+00  -2.48587429948976E-13
     -1.21288721574282E-11  -1.23774595873772E-11  -1.39456657596766E-17   1.36000000000000E-01   1.36000000000000E-01
      0.00000000000000E+00   0.00000000000000E+00   0.00000000000000E+00   0.00000000000000E+00   0.00000000000000E+00
     -6.01609225629955E-17   2.00000000000000E-01   2.00000000000000E-01   0.00000000000000E+00   0.00000000000000E+00
      1.23735273635498E-11   3.93222382733145E-15   1.23774595873772E-11   1.18633719707612E-17   3.60000000000000E-01
      3.60000000000000E-01   0.00000000000000E+00   0.00000000000000E+00   0.00000000000000E+00   0.00000000000000E+00
      0.00000000000000E+00   6.22432163519110E-17
      3.50000000000000E-01
      0.00000000000000E+00   0.00000000000000E+00   0.00000000000000E+00   0.00000000000000E+00  -2.49940621175411E-13
     -1.16534221577386E-11  -1.19033627789140E-11  -1.39887653131809E-17   1.40000000000000E-01   1.40000000000000E-01
      0.00000000000000E+00   0.00000000000000E+00   0.00000000000000E+00   0.00000000000000E+00   0.00000000000000E+00
     -5.90245950616389E-17   2.00000000000000E-01   2.00000000000000E-01   0.00000000000000E+00   0.00000000000000E+00
      1.18994567415239E-11   3.90603739017718E-15   1.19033627789140E-11   1.18196046853114E-17   3.60000000000000E-01
      3.60000000000000E-01   0.00000000000000E+00   0.00000000000000E+00   0.00000000000000E+00   0.00000000000000E+00
      0.00000000000000E+00   6.11937556895083E-17
      3.60000000000000E-01
      0.00000000000000E+00   0.00000000000000E+00   0.00000000000000E+00   0.00000000000000E+00  -2.51295268208699E-13
     -1.12096097737351E-11  -1.14609050419438E-11  -1.40318565983255E-17   1.44000000000000E-01   1.44000000000000E-01
      0.00000000000000E+00   0.00000000000000E+00   0.00000000000000E+00   0.00000000000000E+00   0.00000000000000E+00
     -5.78882610093776E-17   2.00000000000000E-01   2.00000000000000E-01   0.00000000000000E+00   0.00000000000000E+00
      1.14570251525981E-11   3.87988934571389E-15   1.14609050419438E-11   1.17758160284078E-17   3.60000000000000E-01
      3.60000000000000E-01   0.00000000000000E+00   0.00000000000000E+00   0.00000000000000E+00   0.00000000000000E+00
      0.00000000000000E+00   6.01443015792953E-17
      3.70000000000000E-01
      0.00000000000000E+00   0.00000000000000E+00   0.00000000000000E+00   0.00000000000000E+00  -2.52651356557245E-13