DF-ISE text

Info {
  version   = 1.0
  type      = xyplot
  datasets  = [
    "time"
    "source OuterVoltage" "source InnerVoltage" "source QuasiFermiPotential" "source DisplacementCurrent" "source eCurrent"
    "source hCurrent" "source TotalCurrent" "source Charge" "topGate OuterVoltage" "topGate InnerVoltage"
    "topGate QuasiFermiPotential" "topGate DisplacementCurrent" "topGate eCurrent" "topGate hCurrent" "topGate TotalCurrent"
    "topGate Charge" "drain OuterVoltage" "drain InnerVoltage" "drain QuasiFermiPotential" "drain DisplacementCurrent"
    "drain eCurrent" "drain hCurrent" "drain TotalCurrent" "drain Charge" "bottomGate OuterVoltage"
    "bottomGate InnerVoltage" "bottomGate QuasiFermiPotential" "bottomGate DisplacementCurrent" "bottomGate eCurrent" "bottomGate hCurrent"
    "bottomGate TotalCurrent" "bottomGate Charge" ]
  functions = [
    Time
    OuterVoltage InnerVoltage QuasiFermiPotential DisplacementCurrent eCurrent
    hCurrent TotalCurrent Charge OuterVoltage InnerVoltage
    QuasiFermiPotential DisplacementCurrent eCurrent hCurrent TotalCurrent
    Charge OuterVoltage InnerVoltage QuasiFermiPotential DisplacementCurrent
    eCurrent hCurrent TotalCurrent Charge OuterVoltage
    InnerVoltage QuasiFermiPotential DisplacementCurrent eCurrent hCurrent
    TotalCurrent Charge ]
}

Data {
      1.00000000000000E-02
      0.00000000000000E+00   0.00000000000000E+00   0.00000000000000E+00   0.00000000000000E+00  -1.82662743282560E-13
     -4.41389827869530E-10  -4.41572490612812E-10  -1.17540096458911E-17   4.00000000000000E-03   4.00000000000000E-03
      0.00000000000000E+00   0.00000000000000E+00   0.00000000000000E+00   0.00000000000000E+00   0.00000000000000E+00
     -8.13266856019457E-17   3.90000000000000E-01   3.90000000000000E-01   0.00000000000000E+00   0.00000000000000E+00
      4.41565254140900E-10   7.23647191211412E-15   4.41572490612812E-10   1.81235236326946E-17   2.90000000000000E-01
      2.90000000000000E-01   0.00000000000000E+00   0.00000000000000E+00   0.00000000000000E+00   0.00000000000000E+00
      0.00000000000000E+00   7.49571716151422E-17
      2.00000000000000E-02
      0.00000000000000E+00   0.00000000000000E+00   0.00000000000000E+00   0.00000000000000E+00  -1.83918685650352E-13
     -4.15084504123952E-10  -4.15268422809603E-10  -1.17978086514066E-17   8.00000000000000E-03   8.00000000000000E-03
      0.00000000000000E+00   0.00000000000000E+00   0.00000000000000E+00   0.00000000000000E+00   0.00000000000000E+00
     -8.01905437568468E-17   3.90000000000000E-01   3.90000000000000E-01   0.00000000000000E+00   0.00000000000000E+00
      4.15261145244559E-10   7.27756504446908E-15   4.15268422809603E-10   1.80808272806422E-17   2.90000000000000E-01
      2.90000000000000E-01   0.00000000000000E+00   0.00000000000000E+00   0.00000000000000E+00   0.00000000000000E+00
      0.00000000000000E+00   7.39075251276111E-17
      3.00000000000000E-02
      0.00000000000000E+00   0.00000000000000E+00   0.00000000000000E+00   0.00000000000000E+00  -1.85176979156122E-13
     -3.90158366030320E-10  -3.90343543009476E-10  -1.18415860959486E-17   1.20000000000000E-02   1.20000000000000E-02
      0.00000000000000E+00   0.00000000000000E+00   0.00000000000000E+00   0.00000000000000E+00   0.00000000000000E+00
     -7.90544117965344E-17   3.90000000000000E-01   3.90000000000000E-01   0.00000000000000E+00   0.00000000000000E+00
      3.90336229645690E-10   7.31336378644838E-15   3.90343543009477E-10   1.80381291266384E-17   2.90000000000000E-01
      2.90000000000000E-01   0.00000000000000E+00   0.00000000000000E+00   0.00000000000000E+00   0.00000000000000E+00
      0.00000000000000E+00   7.28578687658445E-17
      4.00000000000000E-02
      0.00000000000000E+00   0.00000000000000E+00   0.00000000000000E+00   0.00000000000000E+00  -1.86437615197662E-13
     -3.66550597261524E-10  -3.66737034876721E-10  -1.18853424120112E-17   1.60000000000000E-02   1.60000000000000E-02
      0.00000000000000E+00   0.00000000000000E+00   0.00000000000000E+00   0.00000000000000E+00   0.00000000000000E+00
     -7.79182894888320E-17   3.90000000000000E-01   3.90000000000000E-01   0.00000000000000E+00   0.00000000000000E+00
      3.66729690633198E-10   7.34424352282907E-15   3.66737034876721E-10   1.79954291395490E-17   2.90000000000000E-01
      2.90000000000000E-01   0.00000000000000E+00   0.00000000000000E+00   0.00000000000000E+00   0.00000000000000E+00
      0.00000000000000E+00   7.18082027612942E-17
      5.00000000000000E-02
      0.00000000000000E+00   0.00000000000000E+00   0.00000000000000E+00   0.00000000000000E+00  -1.87700583730065E-13
     -3.44202479721744E-10  -3.44390180305474E-10  -1.19290780223634E-17   2.00000000000000E-02   2.00000000000000E-02
      0.00000000000000E+00   0.00000000000000E+00   0.00000000000000E+00   0.00000000000000E+00   0.00000000000000E+00
     -7.67821766064148E-17   3.90000000000000E-01   3.90000000000000E-01   0.00000000000000E+00   0.00000000000000E+00
      3.44382809750657E-10   7.37055481594833E-15   3.44390180305473E-10   1.79527272881692E-17   2.90000000000000E-01
      2.90000000000000E-01   0.00000000000000E+00   0.00000000000000E+00   0.00000000000000E+00   0.00000000000000E+00
      0.00000000000000E+00   7.07585273406089E-17
      6.00000000000000E-02
      0.00000000000000E+00   0.00000000000000E+00   0.00000000000000E+00   0.00000000000000E+00  -1.88965873417249E-13
     -3.23057345145457E-10  -3.23246311018874E-10  -1.19727933402837E-17   2.40000000000000E-02   2.40000000000000E-02
      0.00000000000000E+00   0.00000000000000E+00   0.00000000000000E+00   0.00000000000000E+00   0.00000000000000E+00
     -7.56460729266752E-17   3.90000000000000E-01   3.90000000000000E-01   0.00000000000000E+00   0.00000000000000E+00
      3.23238918393972E-10   7.39262490165682E-15   3.23246311018874E-10   1.79100235411925E-17   2.90000000000000E-01
      2.90000000000000E-01   0.00000000000000E+00   0.00000000000000E+00   0.00000000000000E+00   0.00000000000000E+00
      0.00000000000000E+00   6.97088427257664E-17
      7.00000000000000E-02
      0.00000000000000E+00   0.00000000000000E+00   0.00000000000000E+00   0.00000000000000E+00  -1.90233471770087E-13
     -3.03060527108365E-10  -3.03250760580135E-10  -1.20164887697878E-17   2.80000000000000E-02   2.80000000000000E-02
      0.00000000000000E+00   0.00000000000000E+00   0.00000000000000E+00   0.00000000000000E+00   0.00000000000000E+00
     -7.45099782315921E-17   3.90000000000000E-01   3.90000000000000E-01   0.00000000000000E+00   0.00000000000000E+00
      3.03243349821010E-10   7.41075912492186E-15   3.03250760580135E-10   1.78673178671796E-17   2.90000000000000E-01
      2.90000000000000E-01   0.00000000000000E+00   0.00000000000000E+00   0.00000000000000E+00   0.00000000000000E+00
      0.00000000000000E+00   6.86591491342003E-17
      8.00000000000000E-02
      0.00000000000000E+00   0.00000000000000E+00   0.00000000000000E+00   0.00000000000000E+00  -1.91503365272415E-13
     -2.84159313454754E-10  -2.84350816820026E-10  -1.20601647058512E-17   3.20000000000000E-02   3.20000000000000E-02
      0.00000000000000E+00   0.00000000000000E+00   0.00000000000000E+00   0.00000000000000E+00   0.00000000000000E+00
     -7.33738923076034E-17   3.90000000000000E-01   3.90000000000000E-01   0.00000000000000E+00   0.00000000000000E+00
      2.84343391577760E-10   7.42524226671949E-15   2.84350816820027E-10   1.78246102345299E-17   2.90000000000000E-01
      2.90000000000000E-01   0.00000000000000E+00   0.00000000000000E+00   0.00000000000000E+00   0.00000000000000E+00
      0.00000000000000E+00   6.76094467789247E-17
      9.00000000000000E-02
      0.00000000000000E+00   0.00000000000000E+00   0.00000000000000E+00   0.00000000000000E+00  -1.92775539495591E-13
     -2.66302899146747E-10  -2.66495674686242E-10  -1.21038215346265E-17   3.60000000000000E-02   3.60000000000000E-02
      0.00000000000000E+00   0.00000000000000E+00   0.00000000000000E+00   0.00000000000000E+00   0.00000000000000E+00
     -7.22378149454825E-17   3.90000000000000E-01   3.90000000000000E-01   0.00000000000000E+00   0.00000000000000E+00
      2.66488238346441E-10   7.43633980193568E-15   2.66495674686242E-10   1.77819006114538E-17   2.90000000000000E-01
      2.90000000000000E-01   0.00000000000000E+00   0.00000000000000E+00   0.00000000000000E+00   0.00000000000000E+00
      0.00000000000000E+00   6.65597358686552E-17
      1.00000000000000E-01
      0.00000000000000E+00   0.00000000000000E+00   0.00000000000000E+00   0.00000000000000E+00  -1.94049979202883E-13
     -2.49442339541673E-10  -2.49636389520876E-10  -1.21474596336548E-17   4.00000000000000E-02   4.00000000000000E-02
      0.00000000000000E+00   0.00000000000000E+00   0.00000000000000E+00   0.00000000000000E+00   0.00000000000000E+00
     -7.11017459402182E-17   3.90000000000000E-01   3.90000000000000E-01   0.00000000000000E+00   0.00000000000000E+00
      2.49628945221753E-10   7.44429912310963E-15   2.49636389520876E-10   1.77391889659466E-17   2.90000000000000E-01
      2.90000000000000E-01   0.00000000000000E+00   0.00000000000000E+00   0.00000000000000E+00   0.00000000000000E+00
      0.00000000000000E+00   6.55100166079264E-17
      1.10000000000000E-01
      0.00000000000000E+00   0.00000000000000E+00   0.00000000000000E+00   0.00000000000000E+00  -1.95326668444621E-13
     -2.33530504104491E-10  -2.33725830772936E-10  -1.21910793720726E-17   4.40000000000000E-02   4.40000000000000E-02
      0.00000000000000E+00   0.00000000000000E+00   0.00000000000000E+00   0.00000000000000E+00   0.00000000000000E+00
     -6.99656850908973E-17   3.90000000000000E-01   3.90000000000000E-01   0.00000000000000E+00   0.00000000000000E+00
      2.33718381422276E-10   7.44935066008333E-15   2.33725830772936E-10   1.76964752657633E-17   2.90000000000000E-01
      2.90000000000000E-01   0.00000000000000E+00   0.00000000000000E+00   0.00000000000000E+00   0.00000000000000E+00
      0.00000000000000E+00   6.44602891972065E-17
      1.20000000000000E-01
      0.00000000000000E+00   0.00000000000000E+00   0.00000000000000E+00   0.00000000000000E+00  -1.96605590644584E-13
     -2.18522030562857E-10  -2.18718636153502E-10  -1.22346811108126E-17   4.80000000000000E-02   4.80000000000000E-02
      0.00000000000000E+00   0.00000000000000E+00   0.00000000000000E+00   0.00000000000000E+00   0.00000000000000E+00
     -6.88296322005910E-17   3.90000000000000E-01   3.90000000000000E-01   0.00000000000000E+00   0.00000000000000E+00
      2.18711184444559E-10   7.45170894305430E-15   2.18718636153502E-10   1.76537594783945E-17   2.90000000000000E-01
      2.90000000000000E-01   0.00000000000000E+00   0.00000000000000E+00   0.00000000000000E+00   0.00000000000000E+00
      0.00000000000000E+00   6.34105538330091E-17
      1.30000000000000E-01
      0.00000000000000E+00   0.00000000000000E+00   0.00000000000000E+00   0.00000000000000E+00  -1.97886728678780E-13
     -2.04373279513122E-10  -2.04571166241800E-10  -1.22782652028007E-17   5.20000000000000E-02   5.20000000000000E-02
      0.00000000000000E+00   0.00000000000000E+00   0.00000000000000E+00   0.00000000000000E+00   0.00000000000000E+00
     -6.76935870762443E-17   3.90000000000000E-01   3.90000000000000E-01   0.00000000000000E+00   0.00000000000000E+00
      2.04563714668166E-10   7.45157363454873E-15   2.04571166241801E-10   1.76110415710428E-17   2.90000000000000E-01
      2.90000000000000E-01   0.00000000000000E+00   0.00000000000000E+00   0.00000000000000E+00   0.00000000000000E+00
      0.00000000000000E+00   6.23608107080022E-17
      1.40000000000000E-01
      0.00000000000000E+00   0.00000000000000E+00   0.00000000000000E+00   0.00000000000000E+00  -1.99170064946895E-13
     -1.91042289485860E-10  -1.91241459550807E-10  -1.23218319931473E-17   5.60000000000000E-02   5.60000000000000E-02
      0.00000000000000E+00   0.00000000000000E+00   0.00000000000000E+00   0.00000000000000E+00   0.00000000000000E+00
     -6.65575495285674E-17   3.90000000000000E-01   3.90000000000000E-01   0.00000000000000E+00   0.00000000000000E+00
      1.91234010420350E-10   7.44913045650428E-15   1.91241459550807E-10   1.75683215106009E-17   2.90000000000000E-01
      2.90000000000000E-01   0.00000000000000E+00   0.00000000000000E+00   0.00000000000000E+00   0.00000000000000E+00
      0.00000000000000E+00   6.13110600111138E-17
      1.50000000000000E-01
      0.00000000000000E+00   0.00000000000000E+00   0.00000000000000E+00   0.00000000000000E+00  -2.00455581437366E-13
     -1.78488732480258E-10  -1.78689188061695E-10  -1.23653818193339E-17   6.00000000000000E-02   6.00000000000000E-02
      0.00000000000000E+00   0.00000000000000E+00   0.00000000000000E+00   0.00000000000000E+00   0.00000000000000E+00
     -6.54215193719313E-17   3.90000000000000E-01   3.90000000000000E-01   0.00000000000000E+00   0.00000000000000E+00
      1.78681743509582E-10   7.44455211273542E-15   1.78689188061695E-10   1.75255992636293E-17   2.90000000000000E-01
      2.90000000000000E-01   0.00000000000000E+00   0.00000000000000E+00   0.00000000000000E+00   0.00000000000000E+00
      0.00000000000000E+00   6.02613019276358E-17
      1.60000000000000E-01
      0.00000000000000E+00   0.00000000000000E+00   0.00000000000000E+00   0.00000000000000E+00  -2.01743259786456E-13
     -1.66673869976851E-10  -1.66875613236637E-10  -1.24089150113958E-17   6.40000000000000E-02   6.40000000000000E-02
      0.00000000000000E+00   0.00000000000000E+00   0.00000000000000E+00   0.00000000000000E+00   0.00000000000000E+00
     -6.42854964242647E-17   3.90000000000000E-01   3.90000000000000E-01   0.00000000000000E+00   0.00000000000000E+00
      1.66868175237540E-10   7.43799909773275E-15   1.66875613236637E-10   1.74828747963359E-17   2.90000000000000E-01
      2.90000000000000E-01   0.00000000000000E+00   0.00000000000000E+00   0.00000000000000E+00   0.00000000000000E+00
      0.00000000000000E+00   5.92115366393246E-17
      1.70000000000000E-01
      0.00000000000000E+00   0.00000000000000E+00   0.00000000000000E+00   0.00000000000000E+00  -2.03033081331881E-13
     -1.55560509438740E-10  -1.55763542520072E-10  -1.24524318920993E-17   6.80000000000000E-02   6.80000000000000E-02
      0.00000000000000E+00   0.00000000000000E+00   0.00000000000000E+00   0.00000000000000E+00   0.00000000000000E+00
     -6.31494805069550E-17   3.90000000000000E-01   3.90000000000000E-01   0.00000000000000E+00   0.00000000000000E+00
      1.55756112899527E-10   7.42962054499363E-15   1.55763542520072E-10   1.74401480745549E-17   2.90000000000000E-01
      2.90000000000000E-01   0.00000000000000E+00   0.00000000000000E+00   0.00000000000000E+00   0.00000000000000E+00
      0.00000000000000E+00   5.81617643244994E-17
      1.80000000000000E-01
      0.00000000000000E+00   0.00000000000000E+00   0.00000000000000E+00   0.00000000000000E+00  -2.04325027161579E-13
     -1.45112961311402E-10  -1.45317286338563E-10  -1.24959327771152E-17   7.20000000000000E-02   7.20000000000000E-02
      0.00000000000000E+00   0.00000000000000E+00   0.00000000000000E+00   0.00000000000000E+00   0.00000000000000E+00
     -6.20134714447499E-17   3.90000000000000E-01   3.90000000000000E-01   0.00000000000000E+00   0.00000000000000E+00
      1.45309866783635E-10   7.41955492804187E-15   1.45317286338563E-10   1.73974190637272E-17   2.90000000000000E-01
      2.90000000000000E-01   0.00000000000000E+00   0.00000000000000E+00   0.00000000000000E+00   0.00000000000000E+00
      0.00000000000000E+00   5.71119851581379E-17
      1.90000000000000E-01
      0.00000000000000E+00   0.00000000000000E+00   0.00000000000000E+00   0.00000000000000E+00  -2.05619078157770E-13
     -1.35296996531864E-10  -1.35502615610022E-10  -1.25394179751880E-17   7.60000000000000E-02   7.60000000000000E-02
      0.00000000000000E+00   0.00000000000000E+00   0.00000000000000E+00   0.00000000000000E+00   0.00000000000000E+00
     -6.08774690656634E-17   3.90000000000000E-01   3.90000000000000E-01   0.00000000000000E+00   0.00000000000000E+00
      1.35495207679212E-10   7.40793080999072E-15   1.35502615610022E-10   1.73546877288809E-17   2.90000000000000E-01
      2.90000000000000E-01   0.00000000000000E+00   0.00000000000000E+00   0.00000000000000E+00   0.00000000000000E+00
      0.00000000000000E+00   5.60621993119705E-17
      2.00000000000000E-01
      0.00000000000000E+00   0.00000000000000E+00   0.00000000000000E+00   0.00000000000000E+00  -2.06915215037001E-13
     -1.26079804557857E-10  -1.26286719772894E-10  -1.25828877883002E-17   8.00000000000000E-02   8.00000000000000E-02
      0.00000000000000E+00   0.00000000000000E+00   0.00000000000000E+00   0.00000000000000E+00   0.00000000000000E+00
     -5.97414732008832E-17   3.90000000000000E-01   3.90000000000000E-01   0.00000000000000E+00   0.00000000000000E+00
      1.26279324905423E-10   7.39486747092743E-15   1.26286719772894E-10   1.73119540346121E-17   2.90000000000000E-01
      2.90000000000000E-01   0.00000000000000E+00   0.00000000000000E+00   0.00000000000000E+00   0.00000000000000E+00
      0.00000000000000E+00   5.50124069545712E-17
      2.10000000000000E-01
      0.00000000000000E+00   0.00000000000000E+00   0.00000000000000E+00   0.00000000000000E+00  -2.08213418386476E-13
     -1.17429951928068E-10  -1.17638165346455E-10  -1.26263425118334E-17   8.40000000000000E-02   8.40000000000000E-02
      0.00000000000000E+00   0.00000000000000E+00   0.00000000000000E+00   0.00000000000000E+00   0.00000000000000E+00
     -5.86054836846797E-17   3.90000000000000E-01   3.90000000000000E-01   0.00000000000000E+00   0.00000000000000E+00
      1.17630784870905E-10   7.38047555040542E-15   1.17638165346455E-10   1.72692179450661E-17   2.90000000000000E-01
      2.90000000000000E-01   0.00000000000000E+00   0.00000000000000E+00   0.00000000000000E+00   0.00000000000000E+00
      0.00000000000000E+00   5.39626082514469E-17
      2.20000000000000E-01
      0.00000000000000E+00   0.00000000000000E+00   0.00000000000000E+00   0.00000000000000E+00  -2.09513668696765E-13
     -1.09317341364550E-10  -1.09526855033247E-10  -1.26697824347249E-17   8.80000000000000E-02   8.80000000000000E-02
      0.00000000000000E+00   0.00000000000000E+00   0.00000000000000E+00   0.00000000000000E+00   0.00000000000000E+00
     -5.74695003543184E-17   3.90000000000000E-01   3.90000000000000E-01   0.00000000000000E+00   0.00000000000000E+00
      1.09519490175616E-10   7.36485763074083E-15   1.09526855033247E-10   1.72264794239189E-17   2.90000000000000E-01
      2.90000000000000E-01   0.00000000000000E+00   0.00000000000000E+00   0.00000000000000E+00   0.00000000000000E+00
      0.00000000000000E+00   5.29128033651244E-17
      2.30000000000000E-01
      0.00000000000000E+00   0.00000000000000E+00   0.00000000000000E+00   0.00000000000000E+00  -2.10815946391582E-13
     -1.01713171428527E-10  -1.01923987374919E-10  -1.27132078396206E-17   9.20000000000000E-02   9.20000000000000E-02
      0.00000000000000E+00   0.00000000000000E+00   0.00000000000000E+00   0.00000000000000E+00   0.00000000000000E+00
     -5.63335230499740E-17   3.90000000000000E-01   3.90000000000000E-01   0.00000000000000E+00   0.00000000000000E+00
      1.01916639266135E-10   7.34810878395715E-15   1.01923987374919E-10   1.71837384343591E-17   2.90000000000000E-01
      2.90000000000000E-01   0.00000000000000E+00   0.00000000000000E+00   0.00000000000000E+00   0.00000000000000E+00
      0.00000000000000E+00   5.18629924552355E-17
      2.40000000000000E-01
      0.00000000000000E+00   0.00000000000000E+00   0.00000000000000E+00   0.00000000000000E+00  -2.12120231854535E-13
     -9.45898967408929E-11  -9.48020169727475E-11  -1.27566190030241E-17   9.60000000000000E-02   9.60000000000000E-02
      0.00000000000000E+00   0.00000000000000E+00   0.00000000000000E+00   0.00000000000000E+00   0.00000000000000E+00
     -5.51975516146460E-17   3.90000000000000E-01   3.90000000000000E-01   0.00000000000000E+00   0.00000000000000E+00
      9.47946866556624E-11   7.33031708522689E-15   9.48020169727476E-11   1.71409949390699E-17   2.90000000000000E-01
      2.90000000000000E-01   0.00000000000000E+00   0.00000000000000E+00   0.00000000000000E+00   0.00000000000000E+00
      0.00000000000000E+00   5.08131756786002E-17
      2.50000000000000E-01
      0.00000000000000E+00   0.00000000000000E+00   0.00000000000000E+00   0.00000000000000E+00  -2.13426505453292E-13
     -8.79211887787445E-11  -8.81346152841978E-11  -1.28000161954418E-17   1.00000000000000E-01   1.00000000000000E-01
      0.00000000000000E+00   0.00000000000000E+00   0.00000000000000E+00   0.00000000000000E+00   0.00000000000000E+00
     -5.40615858940770E-17   3.90000000000000E-01   3.90000000000000E-01   0.00000000000000E+00   0.00000000000000E+00
      8.81273037200888E-11   7.31156410893715E-15   8.81346152841978E-11   1.70982489002109E-17   2.90000000000000E-01
      2.90000000000000E-01   0.00000000000000E+00   0.00000000000000E+00   0.00000000000000E+00   0.00000000000000E+00
      0.00000000000000E+00   4.97633531893080E-17
      2.60000000000000E-01
      0.00000000000000E+00   0.00000000000000E+00   0.00000000000000E+00   0.00000000000000E+00  -2.14734747561470E-13
     -8.16818972591961E-11  -8.18966320067576E-11  -1.28433996815250E-17   1.04000000000000E-01   1.04000000000000E-01
      0.00000000000000E+00   0.00000000000000E+00   0.00000000000000E+00   0.00000000000000E+00   0.00000000000000E+00
     -5.29256257366724E-17   3.90000000000000E-01   3.90000000000000E-01   0.00000000000000E+00   0.00000000000000E+00
      8.18893400813957E-11   7.29192536200873E-15   8.18966320067577E-11   1.70555002794009E-17   2.90000000000000E-01
      2.90000000000000E-01   0.00000000000000E+00   0.00000000000000E+00   0.00000000000000E+00   0.00000000000000E+00
      0.00000000000000E+00   4.87135251387965E-17
      2.70000000000000E-01
      0.00000000000000E+00   0.00000000000000E+00   0.00000000000000E+00   0.00000000000000E+00  -2.16044938578227E-13
     -7.58480121218252E-11  -7.60640570604034E-11  -1.28867697202079E-17   1.08000000000000E-01   1.08000000000000E-01
      0.00000000000000E+00   0.00000000000000E+00   0.00000000000000E+00   0.00000000000000E+00   0.00000000000000E+00
     -5.17896709934219E-17   3.90000000000000E-01   3.90000000000000E-01   0.00000000000000E+00   0.00000000000000E+00
      7.60567855896761E-11   7.27147072736810E-15   7.60640570604035E-11   1.70127490376997E-17   2.90000000000000E-01
      2.90000000000000E-01   0.00000000000000E+00   0.00000000000000E+00   0.00000000000000E+00   0.00000000000000E+00
      0.00000000000000E+00   4.76636916759301E-17
      2.80000000000000E-01
      0.00000000000000E+00   0.00000000000000E+00   0.00000000000000E+00   0.00000000000000E+00  -2.17357058945909E-13
     -7.03966261208538E-11  -7.06139831797998E-11  -1.29301265648425E-17   1.12000000000000E-01   1.12000000000000E-01
      0.00000000000000E+00   0.00000000000000E+00   0.00000000000000E+00   0.00000000000000E+00   0.00000000000000E+00
     -5.06537215178234E-17   3.90000000000000E-01   3.90000000000000E-01   0.00000000000000E+00   0.00000000000000E+00
      7.06067329149511E-11   7.25026484869273E-15   7.06139831797998E-11   1.69699951355909E-17   2.90000000000000E-01
      2.90000000000000E-01   0.00000000000000E+00   0.00000000000000E+00   0.00000000000000E+00   0.00000000000000E+00
      0.00000000000000E+00   4.66138529470750E-17
      2.90000000000000E-01
      0.00000000000000E+00   0.00000000000000E+00   0.00000000000000E+00   0.00000000000000E+00  -2.18671089165897E-13
     -6.53058980381926E-11  -6.55245691273585E-11  -1.29734704633302E-17   1.16000000000000E-01   1.16000000000000E-01
      0.00000000000000E+00   0.00000000000000E+00   0.00000000000000E+00   0.00000000000000E+00   0.00000000000000E+00
     -4.95177771658077E-17   3.90000000000000E-01   3.90000000000000E-01   0.00000000000000E+00   0.00000000000000E+00
      6.55173407598522E-11   7.22836750630980E-15   6.55245691273585E-11   1.69272385329642E-17   2.90000000000000E-01
      2.90000000000000E-01   0.00000000000000E+00   0.00000000000000E+00   0.00000000000000E+00   0.00000000000000E+00
      0.00000000000000E+00   4.55640090961737E-17
      3.00000000000000E-01
      0.00000000000000E+00   0.00000000000000E+00   0.00000000000000E+00   0.00000000000000E+00  -2.19987009812786E-13
     -6.05550165282580E-11  -6.07750035380707E-11  -1.30168016582497E-17   1.20000000000000E-01   1.20000000000000E-01
      0.00000000000000E+00   0.00000000000000E+00   0.00000000000000E+00   0.00000000000000E+00   0.00000000000000E+00
     -4.83818377956658E-17   3.90000000000000E-01   3.90000000000000E-01   0.00000000000000E+00   0.00000000000000E+00
      6.07677977041045E-11   7.20583396623452E-15   6.07750035380708E-11   1.68844791890978E-17   2.90000000000000E-01
      2.90000000000000E-01   0.00000000000000E+00   0.00000000000000E+00   0.00000000000000E+00   0.00000000000000E+00
      0.00000000000000E+00   4.45141602648177E-17
      3.10000000000000E-01
      0.00000000000000E+00   0.00000000000000E+00   0.00000000000000E+00   0.00000000000000E+00  -2.21304801547080E-13
     -5.61241646053102E-11  -5.63454694068573E-11  -1.30601203869824E-17   1.24000000000000E-01   1.24000000000000E-01
      0.00000000000000E+00   0.00000000000000E+00   0.00000000000000E+00   0.00000000000000E+00   0.00000000000000E+00
     -4.72459032679768E-17   3.90000000000000E-01   3.90000000000000E-01   0.00000000000000E+00   0.00000000000000E+00
      5.63382866915560E-11   7.18271530133174E-15   5.63454694068573E-11   1.68417170626409E-17   2.90000000000000E-01
      2.90000000000000E-01   0.00000000000000E+00   0.00000000000000E+00   0.00000000000000E+00   0.00000000000000E+00
      0.00000000000000E+00   4.34643065923183E-17
      3.20000000000000E-01
      0.00000000000000E+00   0.00000000000000E+00   0.00000000000000E+00   0.00000000000000E+00  -2.22624445126491E-13
     -5.19944847838892E-11  -5.22171092290157E-11  -1.31034268818340E-17   1.28000000000000E-01   1.28000000000000E-01
      0.00000000000000E+00   0.00000000000000E+00   0.00000000000000E+00   0.00000000000000E+00   0.00000000000000E+00
     -4.61099734455380E-17   3.90000000000000E-01   3.90000000000000E-01   0.00000000000000E+00   0.00000000000000E+00
      5.22099501703193E-11   7.15905869637434E-15   5.22171092290157E-11   1.67989521115957E-17   2.90000000000000E-01
      2.90000000000000E-01   0.00000000000000E+00   0.00000000000000E+00   0.00000000000000E+00   0.00000000000000E+00
      0.00000000000000E+00   4.24144482157762E-17
      3.30000000000000E-01
      0.00000000000000E+00   0.00000000000000E+00   0.00000000000000E+00   0.00000000000000E+00  -2.23945921416011E-13
     -4.81480448826586E-11  -4.83719908040746E-11  -1.31467213701536E-17   1.32000000000000E-01   1.32000000000000E-01
      0.00000000000000E+00   0.00000000000000E+00   0.00000000000000E+00   0.00000000000000E+00   0.00000000000000E+00
     -4.49740481932965E-17   3.90000000000000E-01   3.90000000000000E-01   0.00000000000000E+00   0.00000000000000E+00
      4.83648558963455E-11   7.13490772910647E-15   4.83719908040746E-11   1.67561842933003E-17   2.90000000000000E-01
      2.90000000000000E-01   0.00000000000000E+00   0.00000000000000E+00   0.00000000000000E+00   0.00000000000000E+00
      0.00000000000000E+00   4.13645852701498E-17
      3.40000000000000E-01
      0.00000000000000E+00   0.00000000000000E+00   0.00000000000000E+00   0.00000000000000E+00  -2.25269211396787E-13
     -4.45678045017423E-11  -4.47930737131391E-11  -1.31900040744499E-17   1.36000000000000E-01   1.36000000000000E-01
      0.00000000000000E+00   0.00000000000000E+00   0.00000000000000E+00   0.00000000000000E+00   0.00000000000000E+00
     -4.38381273782819E-17   3.90000000000000E-01   3.90000000000000E-01   0.00000000000000E+00   0.00000000000000E+00
      4.47859634105014E-11   7.11030263771808E-15   4.47930737131391E-11   1.67134135644102E-17   2.90000000000000E-01
      2.90000000000000E-01   0.00000000000000E+00   0.00000000000000E+00   0.00000000000000E+00   0.00000000000000E+00
      0.00000000000000E+00   4.03147178883216E-17
      3.50000000000000E-01
      0.00000000000000E+00   0.00000000000000E+00   0.00000000000000E+00   0.00000000000000E+00  -2.26594296174028E-13
     -4.12375821833408E-11  -4.14641764795148E-11  -1.32332752125038E-17   1.40000000000000E-01   1.40000000000000E-01
      0.00000000000000E+00   0.00000000000000E+00   0.00000000000000E+00   0.00000000000000E+00   0.00000000000000E+00
     -4.27022108695405E-17   3.90000000000000E-01   3.90000000000000E-01   0.00000000000000E+00   0.00000000000000E+00
      4.14570911989488E-11   7.08528056605767E-15   4.14641764795148E-11   1.66706398808807E-17   2.90000000000000E-01
      2.90000000000000E-01   0.00000000000000E+00   0.00000000000000E+00   0.00000000000000E+00   0.00000000000000E+00
      0.00000000000000E+00   3.92648462011636E-17
      3.60000000000000E-01
      0.00000000000000E+00   0.00000000000000E+00   0.00000000000000E+00   0.00000000000000E+00  -2.27921156983881E-13
     -3.81420232651207E-11  -3.83699444221046E-11  -1.32765349974792E-17   1.44000000000000E-01   1.44000000000000E-01
      0.00000000000000E+00   0.00000000000000E+00   0.00000000000000E+00   0.00000000000000E+00   0.00000000000000E+00
     -4.15662985380710E-17   3.90000000000000E-01   3.90000000000000E-01   0.00000000000000E+00   0.00000000000000E+00
      3.83628845463190E-11   7.05987578561803E-15   3.83699444221046E-11   1.66278631979487E-17   2.90000000000000E-01
      2.90000000000000E-01   0.00000000000000E+00   0.00000000000000E+00   0.00000000000000E+00   0.00000000000000E+00
      0.00000000000000E+00   3.82149703376015E-17
      3.70000000000000E-01
      0.00000000000000E+00   0.00000000000000E+00   0.00000000000000E+00   0.00000000000000E+00  -2.29249775199527E-13