DF-ISE text

Info {
  version   = 1.0
  type      = xyplot
  datasets  = [
    "time"
    "source OuterVoltage" "source InnerVoltage" "source QuasiFermiPotential" "source DisplacementCurrent" "source eCurrent"
    "source hCurrent" "source TotalCurrent" "source Charge" "topGate OuterVoltage" "topGate InnerVoltage"
    "topGate QuasiFermiPotential" "topGate DisplacementCurrent" "topGate eCurrent" "topGate hCurrent" "topGate TotalCurrent"
    "topGate Charge" "drain OuterVoltage" "drain InnerVoltage" "drain QuasiFermiPotential" "drain DisplacementCurrent"
    "drain eCurrent" "drain hCurrent" "drain TotalCurrent" "drain Charge" "bottomGate OuterVoltage"
    "bottomGate InnerVoltage" "bottomGate QuasiFermiPotential" "bottomGate DisplacementCurrent" "bottomGate eCurrent" "bottomGate hCurrent"
    "bottomGate TotalCurrent" "bottomGate Charge" ]
  functions = [
    Time
    OuterVoltage InnerVoltage QuasiFermiPotential DisplacementCurrent eCurrent
    hCurrent TotalCurrent Charge OuterVoltage InnerVoltage
    QuasiFermiPotential DisplacementCurrent eCurrent hCurrent TotalCurrent
    Charge OuterVoltage InnerVoltage QuasiFermiPotential DisplacementCurrent
    eCurrent hCurrent TotalCurrent Charge OuterVoltage
    InnerVoltage QuasiFermiPotential DisplacementCurrent eCurrent hCurrent
    TotalCurrent Charge ]
}

Data {
      1.00000000000000E-02
      0.00000000000000E+00   0.00000000000000E+00   0.00000000000000E+00   0.00000000000000E+00  -1.05666953701476E-13
     -1.29660790425551E-10  -1.29766457379252E-10  -8.71101964919227E-18   4.00000000000000E-03   4.00000000000000E-03
      0.00000000000000E+00   0.00000000000000E+00   0.00000000000000E+00   0.00000000000000E+00   0.00000000000000E+00
     -9.45168363341929E-18   2.90000000000000E-01   2.90000000000000E-01   0.00000000000000E+00   0.00000000000000E+00
      1.29761368287371E-10   5.08909188113089E-15   1.29766457379252E-10   1.88712294639698E-17   2.00000000000000E-02
      2.00000000000000E-02   0.00000000000000E+00   0.00000000000000E+00   0.00000000000000E+00   0.00000000000000E+00
      0.00000000000000E+00  -7.08526181358240E-19
      2.00000000000000E-02
      0.00000000000000E+00   0.00000000000000E+00   0.00000000000000E+00   0.00000000000000E+00  -1.06673402614502E-13
     -1.24385611530307E-10  -1.24492284932922E-10  -8.75811688149602E-18   8.00000000000000E-03   8.00000000000000E-03
      0.00000000000000E+00   0.00000000000000E+00   0.00000000000000E+00   0.00000000000000E+00   0.00000000000000E+00
     -8.31387585050040E-18   2.90000000000000E-01   2.90000000000000E-01   0.00000000000000E+00   0.00000000000000E+00
      1.24486964986624E-10   5.31994629759175E-15   1.24492284932922E-10   1.88285007408221E-17   2.00000000000000E-02
      2.00000000000000E-02   0.00000000000000E+00   0.00000000000000E+00   0.00000000000000E+00   0.00000000000000E+00
      0.00000000000000E+00  -1.75650800882573E-18
      3.00000000000000E-02
      0.00000000000000E+00   0.00000000000000E+00   0.00000000000000E+00   0.00000000000000E+00  -1.07684627603836E-13
     -1.19405233207434E-10  -1.19512917835038E-10  -8.80512082814422E-18   1.20000000000000E-02   1.20000000000000E-02
      0.00000000000000E+00   0.00000000000000E+00   0.00000000000000E+00   0.00000000000000E+00   0.00000000000000E+00
     -7.17611631721022E-18   2.90000000000000E-01   2.90000000000000E-01   0.00000000000000E+00   0.00000000000000E+00
      1.19507385009332E-10   5.53282570514227E-15   1.19512917835038E-10   1.87857750546309E-17   2.00000000000000E-02
      2.00000000000000E-02   0.00000000000000E+00   0.00000000000000E+00   0.00000000000000E+00   0.00000000000000E+00
      0.00000000000000E+00  -2.80453790927649E-18
      4.00000000000000E-02
      0.00000000000000E+00   0.00000000000000E+00   0.00000000000000E+00   0.00000000000000E+00  -1.08700599346088E-13
     -1.14705014879736E-10  -1.14813715479082E-10  -8.85203358007419E-18   1.60000000000000E-02   1.60000000000000E-02
      0.00000000000000E+00   0.00000000000000E+00   0.00000000000000E+00   0.00000000000000E+00   0.00000000000000E+00
     -6.03840380349136E-18   2.90000000000000E-01   2.90000000000000E-01   0.00000000000000E+00   0.00000000000000E+00
      1.14807986591259E-10   5.72888782278219E-15   1.14813715479082E-10   1.87430520542363E-17   2.00000000000000E-02
      2.00000000000000E-02   0.00000000000000E+00   0.00000000000000E+00   0.00000000000000E+00   0.00000000000000E+00
      0.00000000000000E+00  -3.85261467067077E-18
      5.00000000000000E-02
      0.00000000000000E+00   0.00000000000000E+00   0.00000000000000E+00   0.00000000000000E+00  -1.09721287916678E-13
     -1.10271007168432E-10  -1.10380728456348E-10  -8.89885718042391E-18   2.00000000000000E-02   2.00000000000000E-02
      0.00000000000000E+00   0.00000000000000E+00   0.00000000000000E+00   0.00000000000000E+00   0.00000000000000E+00
     -4.90073711619070E-18   2.90000000000000E-01   2.90000000000000E-01   0.00000000000000E+00   0.00000000000000E+00
      1.10374819233632E-10   5.90922271679592E-15   1.10380728456348E-10   1.87003314127971E-17   2.00000000000000E-02
      2.00000000000000E-02   0.00000000000000E+00   0.00000000000000E+00   0.00000000000000E+00   0.00000000000000E+00
      0.00000000000000E+00  -4.90073711618251E-18
      6.00000000000000E-02
      0.00000000000000E+00   0.00000000000000E+00   0.00000000000000E+00   0.00000000000000E+00  -1.10746662829467E-13
     -1.06089925671194E-10  -1.06200672334023E-10  -8.94559362554242E-18   2.40000000000000E-02   2.40000000000000E-02
      0.00000000000000E+00   0.00000000000000E+00   0.00000000000000E+00   0.00000000000000E+00   0.00000000000000E+00
     -3.76311509754837E-18   2.90000000000000E-01   2.90000000000000E-01   0.00000000000000E+00   0.00000000000000E+00
      1.06194597480763E-10   6.07485326012965E-15   1.06200672334023E-10   1.86576128259310E-17   2.00000000000000E-02
      2.00000000000000E-02   0.00000000000000E+00   0.00000000000000E+00   0.00000000000000E+00   0.00000000000000E+00
      0.00000000000000E+00  -5.94890410284017E-18
      7.00000000000000E-02
      0.00000000000000E+00   0.00000000000000E+00   0.00000000000000E+00   0.00000000000000E+00  -1.11776693074446E-13
     -1.02149125394220E-10  -1.02260902087295E-10  -8.99224486598570E-18   2.80000000000000E-02   2.80000000000000E-02
      0.00000000000000E+00   0.00000000000000E+00   0.00000000000000E+00   0.00000000000000E+00   0.00000000000000E+00
     -2.62553662377148E-18   2.90000000000000E-01   2.90000000000000E-01   0.00000000000000E+00   0.00000000000000E+00
      1.02254675344949E-10   6.22674234553824E-15   1.02260902087294E-10   1.86148960099963E-17   2.00000000000000E-02
      2.00000000000000E-02   0.00000000000000E+00   0.00000000000000E+00   0.00000000000000E+00   0.00000000000000E+00
      0.00000000000000E+00  -6.99711452023914E-18
      8.00000000000000E-02
      0.00000000000000E+00   0.00000000000000E+00   0.00000000000000E+00   0.00000000000000E+00  -1.12811347153565E-13
     -9.84365758311096E-11  -9.85493871782632E-11  -9.03881280749707E-18   3.20000000000000E-02   3.20000000000000E-02
      0.00000000000000E+00   0.00000000000000E+00   0.00000000000000E+00   0.00000000000000E+00   0.00000000000000E+00
     -1.48800060368672E-18   2.90000000000000E-01   2.90000000000000E-01   0.00000000000000E+00   0.00000000000000E+00
      9.85430213805670E-11   6.36579769611816E-15   9.85493871782632E-11   1.85721807005046E-17   2.00000000000000E-02
      2.00000000000000E-02   0.00000000000000E+00   0.00000000000000E+00   0.00000000000000E+00   0.00000000000000E+00
      0.00000000000000E+00  -8.04536728932081E-18
      9.00000000000000E-02
      0.00000000000000E+00   0.00000000000000E+00   0.00000000000000E+00   0.00000000000000E+00  -1.13850593114812E-13
     -9.49408366817866E-11  -9.50546872749015E-11  -9.08529931197225E-18   3.60000000000000E-02   3.60000000000000E-02
      0.00000000000000E+00   0.00000000000000E+00   0.00000000000000E+00   0.00000000000000E+00   0.00000000000000E+00
     -3.50505977466471E-19   2.90000000000000E-01   2.90000000000000E-01   0.00000000000000E+00   0.00000000000000E+00
      9.50481944086851E-11   6.49286621638751E-15   9.50546872749015E-11   1.85294666506526E-17   2.00000000000000E-02
      2.00000000000000E-02   0.00000000000000E+00   0.00000000000000E+00   0.00000000000000E+00   0.00000000000000E+00
      0.00000000000000E+00  -9.09366136121386E-18
      1.00000000000000E-01
      0.00000000000000E+00   0.00000000000000E+00   0.00000000000000E+00   0.00000000000000E+00  -1.14894398584665E-13
     -9.16510342431736E-11  -9.17659286417583E-11  -9.13170619840916E-18   4.00000000000000E-02   4.00000000000000E-02
      0.00000000000000E+00   0.00000000000000E+00   0.00000000000000E+00   0.00000000000000E+00   0.00000000000000E+00
      7.86948284576939E-19   2.90000000000000E-01   2.90000000000000E-01   0.00000000000000E+00   0.00000000000000E+00
      9.17593198928354E-11   6.60874892296886E-15   9.17659286417583E-11   1.84867536299661E-17   2.00000000000000E-02
      2.00000000000000E-02   0.00000000000000E+00   0.00000000000000E+00   0.00000000000000E+00   0.00000000000000E+00
      0.00000000000000E+00  -1.01419957161339E-17
      1.10000000000000E-01
      0.00000000000000E+00   0.00000000000000E+00   0.00000000000000E+00   0.00000000000000E+00  -1.15942730798964E-13
     -8.85568384287123E-11  -8.86727811595112E-11  -9.17803524384187E-18   4.40000000000000E-02   4.40000000000000E-02
      0.00000000000000E+00   0.00000000000000E+00   0.00000000000000E+00   0.00000000000000E+00   0.00000000000000E+00
      1.92436318313310E-18   2.90000000000000E-01   2.90000000000000E-01   0.00000000000000E+00   0.00000000000000E+00
      8.86660669659999E-11   6.71419351131809E-15   8.86727811595112E-11   1.84440414230461E-17   2.00000000000000E-02
      2.00000000000000E-02   0.00000000000000E+00   0.00000000000000E+00   0.00000000000000E+00   0.00000000000000E+00
      0.00000000000000E+00  -1.11903693623373E-17
      1.20000000000000E-01
      0.00000000000000E+00   0.00000000000000E+00   0.00000000000000E+00   0.00000000000000E+00  -1.16995556632325E-13
     -8.56484404566067E-11  -8.57654360132391E-11  -9.22428818425913E-18   4.80000000000000E-02   4.80000000000000E-02
      0.00000000000000E+00   0.00000000000000E+00   0.00000000000000E+00   0.00000000000000E+00   0.00000000000000E+00
      3.06173969097616E-18   2.90000000000000E-01   2.90000000000000E-01   0.00000000000000E+00   0.00000000000000E+00
      8.57586261082426E-11   6.80990499649850E-15   8.57654360132391E-11   1.84013298284091E-17   2.00000000000000E-02
      2.00000000000000E-02   0.00000000000000E+00   0.00000000000000E+00   0.00000000000000E+00   0.00000000000000E+00
      0.00000000000000E+00  -1.22387813351262E-17
      1.30000000000000E-01
      0.00000000000000E+00   0.00000000000000E+00   0.00000000000000E+00   0.00000000000000E+00  -1.18052842626149E-13
     -8.29165311727644E-11  -8.30345840153906E-11  -9.27046671550699E-18   5.20000000000000E-02   5.20000000000000E-02
      0.00000000000000E+00   0.00000000000000E+00   0.00000000000000E+00   0.00000000000000E+00   0.00000000000000E+00
      4.19907875399202E-18   2.90000000000000E-01   2.90000000000000E-01   0.00000000000000E+00   0.00000000000000E+00
      8.30276874738283E-11   6.89654156227513E-15   8.30345840153906E-11   1.83586186574156E-17   2.00000000000000E-02
      2.00000000000000E-02   0.00000000000000E+00   0.00000000000000E+00   0.00000000000000E+00   0.00000000000000E+00
      0.00000000000000E+00  -1.32872306959006E-17
      1.40000000000000E-01
      0.00000000000000E+00   0.00000000000000E+00   0.00000000000000E+00   0.00000000000000E+00  -1.19114555015312E-13
     -8.03522800332192E-11  -8.04713945882345E-11  -9.31657249417588E-18   5.60000000000000E-02   5.60000000000000E-02
      0.00000000000000E+00   0.00000000000000E+00   0.00000000000000E+00   0.00000000000000E+00   0.00000000000000E+00
      5.33638129215387E-18   2.90000000000000E-01   2.90000000000000E-01   0.00000000000000E+00   0.00000000000000E+00
      8.04644198660959E-11   6.97472213855365E-15   8.04713945882345E-11   1.83159077332780E-17   2.00000000000000E-02
      2.00000000000000E-02   0.00000000000000E+00   0.00000000000000E+00   0.00000000000000E+00   0.00000000000000E+00
      0.00000000000000E+00  -1.43357165312560E-17
      1.50000000000000E-01
      0.00000000000000E+00   0.00000000000000E+00   0.00000000000000E+00   0.00000000000000E+00  -1.20180659753607E-13
     -7.79473147238715E-11  -7.80674953836251E-11  -9.36260713847182E-18   6.00000000000000E-02   6.00000000000000E-02
      0.00000000000000E+00   0.00000000000000E+00   0.00000000000000E+00   0.00000000000000E+00   0.00000000000000E+00
      6.47364820044938E-18   2.90000000000000E-01   2.90000000000000E-01   0.00000000000000E+00   0.00000000000000E+00
      7.80604503578055E-11   7.04502581958713E-15   7.80674953836251E-11   1.82731968901442E-17   2.00000000000000E-02
      2.00000000000000E-02   0.00000000000000E+00   0.00000000000000E+00   0.00000000000000E+00   0.00000000000000E+00
      0.00000000000000E+00  -1.53842379521218E-17
      1.60000000000000E-01
      0.00000000000000E+00   0.00000000000000E+00   0.00000000000000E+00   0.00000000000000E+00  -1.21251122537998E-13
     -7.56937014261210E-11  -7.58149525486590E-11  -9.40857222907207E-18   6.40000000000000E-02   6.40000000000000E-02
      0.00000000000000E+00   0.00000000000000E+00   0.00000000000000E+00   0.00000000000000E+00   0.00000000000000E+00
      7.61088034976290E-18   2.90000000000000E-01   2.90000000000000E-01   0.00000000000000E+00   0.00000000000000E+00
      7.58078445541487E-11   7.10799451038484E-15   7.58149525486591E-11   1.82304859722490E-17   2.00000000000000E-02
      2.00000000000000E-02   0.00000000000000E+00   0.00000000000000E+00   0.00000000000000E+00   0.00000000000000E+00
      0.00000000000000E+00  -1.64327940929398E-17
      1.70000000000000E-01
      0.00000000000000E+00   0.00000000000000E+00   0.00000000000000E+00   0.00000000000000E+00  -1.22325908831769E-13
     -7.35839257225545E-11  -7.37062516313862E-11  -9.45446930996515E-18   6.80000000000000E-02   6.80000000000000E-02
      0.00000000000000E+00   0.00000000000000E+00   0.00000000000000E+00   0.00000000000000E+00   0.00000000000000E+00
      8.74807858771533E-18   2.90000000000000E-01   2.90000000000000E-01   0.00000000000000E+00   0.00000000000000E+00
      7.36990874951192E-11   7.16413626713442E-15   7.37062516313864E-11   1.81877748331290E-17   2.00000000000000E-02
      2.00000000000000E-02   0.00000000000000E+00   0.00000000000000E+00   0.00000000000000E+00   0.00000000000000E+00
      0.00000000000000E+00  -1.74813841108791E-17
      1.80000000000000E-01
      0.00000000000000E+00   0.00000000000000E+00   0.00000000000000E+00   0.00000000000000E+00  -1.23404983886616E-13
     -7.16108741366237E-11  -7.17342791205103E-11  -9.50029988927519E-18   7.20000000000000E-02   7.20000000000000E-02
      0.00000000000000E+00   0.00000000000000E+00   0.00000000000000E+00   0.00000000000000E+00   0.00000000000000E+00
      9.88524373946443E-18   2.90000000000000E-01   2.90000000000000E-01   0.00000000000000E+00   0.00000000000000E+00
      7.17270651934733E-11   7.21392703691651E-15   7.17342791205102E-11   1.81450633348965E-17   2.00000000000000E-02
      2.00000000000000E-02   0.00000000000000E+00   0.00000000000000E+00   0.00000000000000E+00   0.00000000000000E+00
      0.00000000000000E+00  -1.85300071850858E-17
      1.90000000000000E-01
      0.00000000000000E+00   0.00000000000000E+00   0.00000000000000E+00   0.00000000000000E+00  -1.24488312763759E-13
     -6.97678163016034E-11  -6.98923046143671E-11  -9.54606544007084E-18   7.60000000000000E-02   7.60000000000000E-02
      0.00000000000000E+00   0.00000000000000E+00   0.00000000000000E+00   0.00000000000000E+00   0.00000000000000E+00
      1.10223766084683E-17   2.90000000000000E-01   2.90000000000000E-01   0.00000000000000E+00   0.00000000000000E+00
      6.98850468040777E-11   7.25781028939880E-15   6.98923046143671E-11   1.81023513475672E-17   2.00000000000000E-02
      2.00000000000000E-02   0.00000000000000E+00   0.00000000000000E+00   0.00000000000000E+00   0.00000000000000E+00
      0.00000000000000E+00  -1.95786625159647E-17
      2.00000000000000E-01
      0.00000000000000E+00   0.00000000000000E+00   0.00000000000000E+00   0.00000000000000E+00  -1.25575860354138E-13
     -6.80483877614738E-11  -6.81739636218279E-11  -9.59176740115888E-18   8.00000000000000E-02   8.00000000000000E-02
      0.00000000000000E+00   0.00000000000000E+00   0.00000000000000E+00   0.00000000000000E+00   0.00000000000000E+00
      1.21594779772141E-17   2.90000000000000E-01   2.90000000000000E-01   0.00000000000000E+00   0.00000000000000E+00
      6.81666674200503E-11   7.29620177771442E-15   6.81739636218280E-11   1.80596387484375E-17   2.00000000000000E-02
      2.00000000000000E-02   0.00000000000000E+00   0.00000000000000E+00   0.00000000000000E+00   0.00000000000000E+00
      0.00000000000000E+00  -2.06273493244927E-17
      2.10000000000000E-01
      0.00000000000000E+00   0.00000000000000E+00   0.00000000000000E+00   0.00000000000000E+00  -1.26667591397753E-13
     -6.64465733896976E-11  -6.65732409810953E-11  -9.63740717786244E-18   8.40000000000000E-02   8.40000000000000E-02
      0.00000000000000E+00   0.00000000000000E+00   0.00000000000000E+00   0.00000000000000E+00   0.00000000000000E+00
      1.32965486079141E-17   2.90000000000000E-01   2.90000000000000E-01   0.00000000000000E+00   0.00000000000000E+00
      6.65659114907417E-11   7.32949035374293E-15   6.65732409810954E-11   1.80169254215084E-17   2.00000000000000E-02
      2.00000000000000E-02   0.00000000000000E+00   0.00000000000000E+00   0.00000000000000E+00   0.00000000000000E+00
      0.00000000000000E+00  -2.16760668515601E-17
      2.20000000000000E-01
      0.00000000000000E+00   0.00000000000000E+00   0.00000000000000E+00   0.00000000000000E+00  -1.27763470502208E-13
     -6.49566914238969E-11  -6.50844548943991E-11  -9.68298614278409E-18   8.80000000000000E-02   8.80000000000000E-02
      0.00000000000000E+00   0.00000000000000E+00   0.00000000000000E+00   0.00000000000000E+00   0.00000000000000E+00
      1.44335892431712E-17   2.90000000000000E-01   2.90000000000000E-01   0.00000000000000E+00   0.00000000000000E+00
      6.50770968562900E-11   7.35803810897357E-15   6.50844548943990E-11   1.79742112569519E-17   2.00000000000000E-02
      2.00000000000000E-02   0.00000000000000E+00   0.00000000000000E+00   0.00000000000000E+00   0.00000000000000E+00
      0.00000000000000E+00  -2.27248143573389E-17
      2.30000000000000E-01
      0.00000000000000E+00   0.00000000000000E+00   0.00000000000000E+00   0.00000000000000E+00  -1.28863462160538E-13
     -6.35733781152304E-11  -6.37022415773909E-11  -9.72850563655401E-18   9.20000000000000E-02   9.20000000000000E-02
      0.00000000000000E+00   0.00000000000000E+00   0.00000000000000E+00   0.00000000000000E+00   0.00000000000000E+00
      1.55706006066158E-17   2.90000000000000E-01   2.90000000000000E-01   0.00000000000000E+00   0.00000000000000E+00
      6.36948593932147E-11   7.38218417622980E-15   6.37022415773909E-11   1.79314961506162E-17   2.00000000000000E-02
      2.00000000000000E-02   0.00000000000000E+00   0.00000000000000E+00   0.00000000000000E+00   0.00000000000000E+00
      0.00000000000000E+00  -2.37735911206780E-17
      2.40000000000000E-01
      0.00000000000000E+00   0.00000000000000E+00   0.00000000000000E+00   0.00000000000000E+00  -1.29967530768365E-13
     -6.22915729788713E-11  -6.24215405096397E-11  -9.77396696856307E-18   9.60000000000000E-02   9.60000000000000E-02
      0.00000000000000E+00   0.00000000000000E+00   0.00000000000000E+00   0.00000000000000E+00   0.00000000000000E+00
      1.67075834035161E-17   2.90000000000000E-01   2.90000000000000E-01   0.00000000000000E+00   0.00000000000000E+00
      6.24141382652788E-11   7.40224436092061E-15   6.24215405096397E-11   1.78887800035679E-17   2.00000000000000E-02
      2.00000000000000E-02   0.00000000000000E+00   0.00000000000000E+00   0.00000000000000E+00   0.00000000000000E+00
      0.00000000000000E+00  -2.48223964385210E-17
      2.50000000000000E-01
      0.00000000000000E+00   0.00000000000000E+00   0.00000000000000E+00   0.00000000000000E+00  -1.31075640640452E-13
     -6.11065046462930E-11  -6.12375802869334E-11  -9.81937141768148E-18   1.00000000000000E-01   1.00000000000000E-01
      0.00000000000000E+00   0.00000000000000E+00   0.00000000000000E+00   0.00000000000000E+00   0.00000000000000E+00
      1.78445383213617E-17   2.90000000000000E-01   2.90000000000000E-01   0.00000000000000E+00   0.00000000000000E+00
      6.12301617736810E-11   7.41851325237513E-15   6.12375802869334E-11   1.78460627216674E-17   2.00000000000000E-02
      2.00000000000000E-02   0.00000000000000E+00   0.00000000000000E+00   0.00000000000000E+00   0.00000000000000E+00
      0.00000000000000E+00  -2.58712296253476E-17
      2.60000000000000E-01
      0.00000000000000E+00   0.00000000000000E+00   0.00000000000000E+00   0.00000000000000E+00  -1.32187756026717E-13
     -6.00136773110842E-11  -6.01458650671109E-11  -9.86472023296264E-18   1.04000000000000E-01   1.04000000000000E-01
      0.00000000000000E+00   0.00000000000000E+00   0.00000000000000E+00   0.00000000000000E+00   0.00000000000000E+00
      1.89814660304250E-17   2.90000000000000E-01   2.90000000000000E-01   0.00000000000000E+00   0.00000000000000E+00
      6.01384338004897E-11   7.43126662116313E-15   6.01458650671109E-11   1.78033442151749E-17   2.00000000000000E-02
      2.00000000000000E-02   0.00000000000000E+00   0.00000000000000E+00   0.00000000000000E+00   0.00000000000000E+00
      0.00000000000000E+00  -2.69200900126373E-17
      2.70000000000000E-01
      0.00000000000000E+00   0.00000000000000E+00   0.00000000000000E+00   0.00000000000000E+00  -1.33303841127765E-13
     -5.90088577581999E-11  -5.91421615993277E-11  -9.91001463433269E-18   1.08000000000000E-01   1.08000000000000E-01
      0.00000000000000E+00   0.00000000000000E+00   0.00000000000000E+00   0.00000000000000E+00   0.00000000000000E+00
      2.01183671842983E-17   2.90000000000000E-01   2.90000000000000E-01   0.00000000000000E+00   0.00000000000000E+00
      5.91347208391561E-11   7.44076017161118E-15   5.91421615993277E-11   1.77606243983860E-17   2.00000000000000E-02
      2.00000000000000E-02   0.00000000000000E+00   0.00000000000000E+00   0.00000000000000E+00   0.00000000000000E+00
      0.00000000000000E+00  -2.79689769483516E-17
      2.80000000000000E-01
      0.00000000000000E+00   0.00000000000000E+00   0.00000000000000E+00   0.00000000000000E+00  -1.34423860109990E-13
     -5.80880629785456E-11  -5.82224868386556E-11  -9.95525581326585E-18   1.12000000000000E-01   1.12000000000000E-01
      0.00000000000000E+00   0.00000000000000E+00   0.00000000000000E+00   0.00000000000000E+00   0.00000000000000E+00
      2.12552424204112E-17   2.90000000000000E-01   2.90000000000000E-01   0.00000000000000E+00   0.00000000000000E+00
      5.82150396058984E-11   7.44723275720747E-15   5.82224868386556E-11   1.77179031892923E-17   2.00000000000000E-02
      2.00000000000000E-02   0.00000000000000E+00   0.00000000000000E+00   0.00000000000000E+00   0.00000000000000E+00
      0.00000000000000E+00  -2.90178897964377E-17
      2.90000000000000E-01
      0.00000000000000E+00   0.00000000000000E+00   0.00000000000000E+00   0.00000000000000E+00  -1.35547777120304E-13
     -5.72475483551610E-11  -5.73830961322813E-11  -1.00004449334457E-17   1.16000000000000E-01   1.16000000000000E-01
      0.00000000000000E+00   0.00000000000000E+00   0.00000000000000E+00   0.00000000000000E+00   0.00000000000000E+00
      2.23920923605265E-17   2.90000000000000E-01   2.90000000000000E-01   0.00000000000000E+00   0.00000000000000E+00
      5.73756452257600E-11   7.45090652129241E-15   5.73830961322813E-11   1.76751805092682E-17   2.00000000000000E-02
      2.00000000000000E-02   0.00000000000000E+00   0.00000000000000E+00   0.00000000000000E+00   0.00000000000000E+00
      0.00000000000000E+00  -3.00668279363490E-17
      3.00000000000000E-01
      0.00000000000000E+00   0.00000000000000E+00   0.00000000000000E+00   0.00000000000000E+00  -1.36675556300545E-13
     -5.64837964194201E-11  -5.66204719757206E-11  -1.00455831314126E-17   1.20000000000000E-01   1.20000000000000E-01
      0.00000000000000E+00   0.00000000000000E+00   0.00000000000000E+00   0.00000000000000E+00   0.00000000000000E+00
      2.35289176112183E-17   2.90000000000000E-01   2.90000000000000E-01   0.00000000000000E+00   0.00000000000000E+00
      5.66130199871997E-11   7.45198852086636E-15   5.66204719757206E-11   1.76324562827782E-17   2.00000000000000E-02
      2.00000000000000E-02   0.00000000000000E+00   0.00000000000000E+00   0.00000000000000E+00   0.00000000000000E+00
      0.00000000000000E+00  -3.11157907625838E-17
      3.10000000000000E-01
      0.00000000000000E+00   0.00000000000000E+00   0.00000000000000E+00   0.00000000000000E+00  -1.37807161801606E-13
     -5.57935061688764E-11  -5.59313133306780E-11  -1.00906715171976E-17   1.24000000000000E-01   1.24000000000000E-01
      0.00000000000000E+00   0.00000000000000E+00   0.00000000000000E+00   0.00000000000000E+00   0.00000000000000E+00
      2.46657187643309E-17   2.90000000000000E-01   2.90000000000000E-01   0.00000000000000E+00   0.00000000000000E+00
      5.59238626591769E-11   7.45067150108152E-15   5.59313133306780E-11   1.75897304371068E-17   2.00000000000000E-02
      2.00000000000000E-02   0.00000000000000E+00   0.00000000000000E+00   0.00000000000000E+00   0.00000000000000E+00
      0.00000000000000E+00  -3.21647776842401E-17
      3.20000000000000E-01
      0.00000000000000E+00   0.00000000000000E+00   0.00000000000000E+00   0.00000000000000E+00  -1.38942557797332E-13
     -5.51735829410932E-11  -5.53125254988905E-11  -1.01357111749425E-17   1.28000000000000E-01   1.28000000000000E-01
      0.00000000000000E+00   0.00000000000000E+00   0.00000000000000E+00   0.00000000000000E+00   0.00000000000000E+00
      2.58024963974219E-17   2.90000000000000E-01   2.90000000000000E-01   0.00000000000000E+00   0.00000000000000E+00
      5.53050783648446E-11   7.44713404584787E-15   5.53125254988905E-11   1.75470029021066E-17   2.00000000000000E-02
      2.00000000000000E-02   0.00000000000000E+00   0.00000000000000E+00   0.00000000000000E+00   0.00000000000000E+00
      0.00000000000000E+00  -3.32137881245859E-17
      3.30000000000000E-01
      0.00000000000000E+00   0.00000000000000E+00   0.00000000000000E+00   0.00000000000000E+00  -1.40081708498209E-13
     -5.46211288408698E-11  -5.47612105493680E-11  -1.01807031635071E-17   1.32000000000000E-01   1.32000000000000E-01
      0.00000000000000E+00   0.00000000000000E+00   0.00000000000000E+00   0.00000000000000E+00   0.00000000000000E+00
      2.69392510741883E-17   2.90000000000000E-01   2.90000000000000E-01   0.00000000000000E+00   0.00000000000000E+00
      5.47537690061564E-11   7.44154321163079E-15   5.47612105493680E-11   1.75042736099643E-17   2.00000000000000E-02
      2.00000000000000E-02   0.00000000000000E+00   0.00000000000000E+00   0.00000000000000E+00   0.00000000000000E+00
      0.00000000000000E+00  -3.42628215206454E-17
      3.40000000000000E-01
      0.00000000000000E+00   0.00000000000000E+00   0.00000000000000E+00   0.00000000000000E+00  -1.41224578164897E-13
     -5.41334337090108E-11  -5.42746582871757E-11  -1.02256485170630E-17   1.36000000000000E-01   1.36000000000000E-01
      0.00000000000000E+00   0.00000000000000E+00   0.00000000000000E+00   0.00000000000000E+00   0.00000000000000E+00
      2.80759833448775E-17   2.90000000000000E-01   2.90000000000000E-01   0.00000000000000E+00   0.00000000000000E+00
      5.42672242339334E-11   7.43405324227673E-15   5.42746582871757E-11   1.74615424949837E-17   2.00000000000000E-02
      2.00000000000000E-02   0.00000000000000E+00   0.00000000000000E+00   0.00000000000000E+00   0.00000000000000E+00
      0.00000000000000E+00  -3.53118773227981E-17
      3.50000000000000E-01
      0.00000000000000E+00   0.00000000000000E+00   0.00000000000000E+00   0.00000000000000E+00  -1.42371131121613E-13
     -5.37079666350180E-11  -5.38503377661396E-11  -1.02705482456748E-17   1.40000000000000E-01   1.40000000000000E-01
      0.00000000000000E+00   0.00000000000000E+00   0.00000000000000E+00   0.00000000000000E+00   0.00000000000000E+00
      2.92126937466842E-17   2.90000000000000E-01   2.90000000000000E-01   0.00000000000000E+00   0.00000000000000E+00
      5.38429129582176E-11   7.42480792203277E-15   5.38503377661396E-11   1.74188094933828E-17   2.00000000000000E-02
      2.00000000000000E-02   0.00000000000000E+00   0.00000000000000E+00   0.00000000000000E+00   0.00000000000000E+00
      0.00000000000000E+00  -3.63609549943922E-17
      3.60000000000000E-01
      0.00000000000000E+00   0.00000000000000E+00   0.00000000000000E+00   0.00000000000000E+00  -1.43521331769389E-13
     -5.33423680029878E-11  -5.34858893347572E-11  -1.03154033358685E-17   1.44000000000000E-01   1.44000000000000E-01
      0.00000000000000E+00   0.00000000000000E+00   0.00000000000000E+00   0.00000000000000E+00   0.00000000000000E+00
      3.03493828041330E-17   2.90000000000000E-01   2.90000000000000E-01   0.00000000000000E+00   0.00000000000000E+00
      5.34784753940533E-11   7.41394070389258E-15   5.34858893347572E-11   1.73760745431061E-17   2.00000000000000E-02
      2.00000000000000E-02   0.00000000000000E+00   0.00000000000000E+00   0.00000000000000E+00   0.00000000000000E+00
      0.00000000000000E+00  -3.74100540113706E-17
      3.70000000000000E-01
      0.00000000000000E+00   0.00000000000000E+00   0.00000000000000E+00   0.00000000000000E+00  -1.44675144599231E-13