DF-ISE text

Info {
  version   = 1.0
  type      = xyplot
  datasets  = [
    "time"
    "source OuterVoltage" "source InnerVoltage" "source QuasiFermiPotential" "source DisplacementCurrent" "source eCurrent"
    "source hCurrent" "source TotalCurrent" "source Charge" "topGate OuterVoltage" "topGate InnerVoltage"
    "topGate QuasiFermiPotential" "topGate DisplacementCurrent" "topGate eCurrent" "topGate hCurrent" "topGate TotalCurrent"
    "topGate Charge" "drain OuterVoltage" "drain InnerVoltage" "drain QuasiFermiPotential" "drain DisplacementCurrent"
    "drain eCurrent" "drain hCurrent" "drain TotalCurrent" "drain Charge" "bottomGate OuterVoltage"
    "bottomGate InnerVoltage" "bottomGate QuasiFermiPotential" "bottomGate DisplacementCurrent" "bottomGate eCurrent" "bottomGate hCurrent"
    "bottomGate TotalCurrent" "bottomGate Charge" ]
  functions = [
    Time
    OuterVoltage InnerVoltage QuasiFermiPotential DisplacementCurrent eCurrent
    hCurrent TotalCurrent Charge OuterVoltage InnerVoltage
    QuasiFermiPotential DisplacementCurrent eCurrent hCurrent TotalCurrent
    Charge OuterVoltage InnerVoltage QuasiFermiPotential DisplacementCurrent
    eCurrent hCurrent TotalCurrent Charge OuterVoltage
    InnerVoltage QuasiFermiPotential DisplacementCurrent eCurrent hCurrent
    TotalCurrent Charge ]
}

Data {
      1.00000000000000E-02
      0.00000000000000E+00   0.00000000000000E+00   0.00000000000000E+00   0.00000000000000E+00  -8.51644842885685E-14
     -2.07384599993422E-13  -2.92549084281991E-13  -8.82846266987418E-18   4.00000000000000E-03   4.00000000000000E-03
      0.00000000000000E+00   0.00000000000000E+00   0.00000000000000E+00   0.00000000000000E+00   0.00000000000000E+00
     -9.39300586902336E-18   4.00000000000000E-02   4.00000000000000E-02   0.00000000000000E+00   0.00000000000000E+00
      2.88677364277493E-13   3.87172000449814E-15   2.92549084281991E-13   1.34068446682101E-17   3.00000000000000E-02
      3.00000000000000E-02   0.00000000000000E+00   0.00000000000000E+00   0.00000000000000E+00   0.00000000000000E+00
      0.00000000000000E+00   4.81462387068747E-18
      2.00000000000000E-02
      0.00000000000000E+00   0.00000000000000E+00   0.00000000000000E+00   0.00000000000000E+00  -8.59660608105999E-14
     -1.87358254527301E-13  -2.73324315337900E-13  -8.87533083295933E-18   8.00000000000000E-03   8.00000000000000E-03
      0.00000000000000E+00   0.00000000000000E+00   0.00000000000000E+00   0.00000000000000E+00   0.00000000000000E+00
     -8.25503646730003E-18   4.00000000000000E-02   4.00000000000000E-02   0.00000000000000E+00   0.00000000000000E+00
      2.69474804948177E-13   3.84951038972307E-15   2.73324315337900E-13   1.33635636067498E-17   3.00000000000000E-02
      3.00000000000000E-02   0.00000000000000E+00   0.00000000000000E+00   0.00000000000000E+00   0.00000000000000E+00
      0.00000000000000E+00   3.76680369350950E-18
      3.00000000000000E-02
      0.00000000000000E+00   0.00000000000000E+00   0.00000000000000E+00   0.00000000000000E+00  -8.67713437766372E-14
     -1.69875712748484E-13  -2.56647056525121E-13  -8.92211084141021E-18   1.20000000000000E-02   1.20000000000000E-02
      0.00000000000000E+00   0.00000000000000E+00   0.00000000000000E+00   0.00000000000000E+00   0.00000000000000E+00
     -7.11710780510884E-18   4.00000000000000E-02   4.00000000000000E-02   0.00000000000000E+00   0.00000000000000E+00
      2.52819730712342E-13   3.82732581277850E-15   2.56647056525121E-13   1.33202757058810E-17   3.00000000000000E-02
      3.00000000000000E-02   0.00000000000000E+00   0.00000000000000E+00   0.00000000000000E+00   0.00000000000000E+00
      0.00000000000000E+00   2.71894294063804E-18
      4.00000000000000E-02
      0.00000000000000E+00   0.00000000000000E+00   0.00000000000000E+00   0.00000000000000E+00  -8.75803083426445E-14
     -1.54644581394804E-13  -2.42224889737449E-13  -8.96880466877877E-18   1.60000000000000E-02   1.60000000000000E-02
      0.00000000000000E+00   0.00000000000000E+00   0.00000000000000E+00   0.00000000000000E+00   0.00000000000000E+00
     -5.97921864418025E-18   4.00000000000000E-02   4.00000000000000E-02   0.00000000000000E+00   0.00000000000000E+00
      2.38419720413525E-13   3.80516932392363E-15   2.42224889737448E-13   1.32769804790121E-17   3.00000000000000E-02
      3.00000000000000E-02   0.00000000000000E+00   0.00000000000000E+00   0.00000000000000E+00   0.00000000000000E+00
      0.00000000000000E+00   1.67104283394690E-18
      5.00000000000000E-02
      0.00000000000000E+00   0.00000000000000E+00   0.00000000000000E+00   0.00000000000000E+00  -8.83929293331590E-14
     -1.41404285531319E-13  -2.29797214864478E-13  -9.01541424330827E-18   2.00000000000000E-02   2.00000000000000E-02
      0.00000000000000E+00   0.00000000000000E+00   0.00000000000000E+00   0.00000000000000E+00   0.00000000000000E+00
     -4.84136777817301E-18   4.00000000000000E-02   4.00000000000000E-02   0.00000000000000E+00   0.00000000000000E+00
      2.26014175930264E-13   3.78303893421361E-15   2.29797214864478E-13   1.32336774565777E-17   3.00000000000000E-02
      3.00000000000000E-02   0.00000000000000E+00   0.00000000000000E+00   0.00000000000000E+00   0.00000000000000E+00
      0.00000000000000E+00   6.23104564903530E-19
      6.00000000000000E-02
      0.00000000000000E+00   0.00000000000000E+00   0.00000000000000E+00   0.00000000000000E+00  -8.92091812652902E-14
     -1.29923017966191E-13  -2.19132199231481E-13  -9.06194144890614E-18   2.40000000000000E-02   2.40000000000000E-02
      0.00000000000000E+00   0.00000000000000E+00   0.00000000000000E+00   0.00000000000000E+00   0.00000000000000E+00
     -3.70355403126151E-18   4.00000000000000E-02   4.00000000000000E-02   0.00000000000000E+00   0.00000000000000E+00
      2.15371260818657E-13   3.76093841282348E-15   2.19132199231481E-13   1.31903661843222E-17   3.00000000000000E-02
      3.00000000000000E-02   0.00000000000000E+00   0.00000000000000E+00   0.00000000000000E+00   0.00000000000000E+00
      0.00000000000000E+00  -4.24870704154568E-19
      7.00000000000000E-02
      0.00000000000000E+00   0.00000000000000E+00   0.00000000000000E+00   0.00000000000000E+00  -9.00290383662683E-14
     -1.19994916934436E-13  -2.10023955300704E-13  -9.10838812610149E-18   2.80000000000000E-02   2.80000000000000E-02
      0.00000000000000E+00   0.00000000000000E+00   0.00000000000000E+00   0.00000000000000E+00   0.00000000000000E+00
     -2.56577625679711E-18   4.00000000000000E-02   4.00000000000000E-02   0.00000000000000E+00   0.00000000000000E+00
      2.06285090337105E-13   3.73886496359968E-15   2.10023955300705E-13   1.31470462217042E-17   3.00000000000000E-02
      3.00000000000000E-02   0.00000000000000E+00   0.00000000000000E+00   0.00000000000000E+00   0.00000000000000E+00
      0.00000000000000E+00  -1.47288183880557E-18
      8.00000000000000E-02
      0.00000000000000E+00   0.00000000000000E+00   0.00000000000000E+00   0.00000000000000E+00  -9.08524745961446E-14
     -1.11437504463437E-13  -2.02289979059581E-13  -9.15475607298718E-18   3.20000000000000E-02   3.20000000000000E-02
      0.00000000000000E+00   0.00000000000000E+00   0.00000000000000E+00   0.00000000000000E+00   0.00000000000000E+00
     -1.42803333603826E-18   4.00000000000000E-02   4.00000000000000E-02   0.00000000000000E+00   0.00000000000000E+00
      1.98573157823752E-13   3.71682123582929E-15   2.02289979059581E-13   1.31037171404124E-17   3.00000000000000E-02
      3.00000000000000E-02   0.00000000000000E+00   0.00000000000000E+00   0.00000000000000E+00   0.00000000000000E+00
      0.00000000000000E+00  -2.52092773138695E-18
      9.00000000000000E-02
      0.00000000000000E+00   0.00000000000000E+00   0.00000000000000E+00   0.00000000000000E+00  -9.16794636637373E-14
     -1.04089323342068E-13  -1.95768787005805E-13  -9.20104704614602E-18   3.60000000000000E-02   3.60000000000000E-02
      0.00000000000000E+00   0.00000000000000E+00   0.00000000000000E+00   0.00000000000000E+00   0.00000000000000E+00
     -2.90324176944495E-19   4.00000000000000E-02   4.00000000000000E-02   0.00000000000000E+00   0.00000000000000E+00
      1.92073982883092E-13   3.69480412271318E-15   1.95768787005805E-13   1.30603785229836E-17   3.00000000000000E-02
      3.00000000000000E-02   0.00000000000000E+00   0.00000000000000E+00   0.00000000000000E+00   0.00000000000000E+00
      0.00000000000000E+00  -3.56900729989307E-18
      1.00000000000000E-01
      0.00000000000000E+00   0.00000000000000E+00   0.00000000000000E+00   0.00000000000000E+00  -9.25099790504665E-14
     -9.78078079754238E-14  -1.90317787025890E-13  -9.24726276156175E-18   4.00000000000000E-02   4.00000000000000E-02
      0.00000000000000E+00   0.00000000000000E+00   0.00000000000000E+00   0.00000000000000E+00   0.00000000000000E+00
      8.47352286970178E-19   4.00000000000000E-02   4.00000000000000E-02   0.00000000000000E+00   0.00000000000000E+00
      1.86644967411838E-13   3.67281961405227E-15   1.90317787025890E-13   1.30170299615146E-17   3.00000000000000E-02
      3.00000000000000E-02   0.00000000000000E+00   0.00000000000000E+00   0.00000000000000E+00   0.00000000000000E+00
      0.00000000000000E+00  -4.61711948692300E-18
      1.10000000000000E-01
      0.00000000000000E+00   0.00000000000000E+00   0.00000000000000E+00   0.00000000000000E+00  -9.33439940205212E-14
     -9.24673151046368E-14  -1.85811309125158E-13  -9.29340489551383E-18   4.40000000000000E-02   4.40000000000000E-02
      0.00000000000000E+00   0.00000000000000E+00   0.00000000000000E+00   0.00000000000000E+00   0.00000000000000E+00
      1.98499709772867E-18   4.00000000000000E-02   4.00000000000000E-02   0.00000000000000E+00   0.00000000000000E+00
      1.82160446040659E-13   3.65086308449895E-15   1.85811309125158E-13   1.29736710564606E-17   3.00000000000000E-02
      3.00000000000000E-02   0.00000000000000E+00   0.00000000000000E+00   0.00000000000000E+00   0.00000000000000E+00
      0.00000000000000E+00  -5.66526325867546E-18
      1.20000000000000E-01
      0.00000000000000E+00   0.00000000000000E+00   0.00000000000000E+00   0.00000000000000E+00  -9.41814816445453E-14
     -8.79573740409825E-14  -1.82138855685528E-13  -9.33947508545694E-18   4.80000000000000E-02   4.80000000000000E-02
      0.00000000000000E+00   0.00000000000000E+00   0.00000000000000E+00   0.00000000000000E+00   0.00000000000000E+00
      3.12261127393079E-18   4.00000000000000E-02   4.00000000000000E-02   0.00000000000000E+00   0.00000000000000E+00
      1.78509918233061E-13   3.62893745246623E-15   1.82138855685528E-13   1.29303014155135E-17   3.00000000000000E-02
      3.00000000000000E-02   0.00000000000000E+00   0.00000000000000E+00   0.00000000000000E+00   0.00000000000000E+00
      0.00000000000000E+00  -6.71343760398732E-18
      1.30000000000000E-01
      0.00000000000000E+00   0.00000000000000E+00   0.00000000000000E+00   0.00000000000000E+00  -9.50224148129650E-14
     -8.41810775440278E-14  -1.79203492356993E-13  -9.38547493088454E-18   5.20000000000000E-02   5.20000000000000E-02
      0.00000000000000E+00   0.00000000000000E+00   0.00000000000000E+00   0.00000000000000E+00   0.00000000000000E+00
      4.26019581174546E-18   4.00000000000000E-02   4.00000000000000E-02   0.00000000000000E+00   0.00000000000000E+00
      1.75596449878706E-13   3.60704247828708E-15   1.79203492356993E-13   1.28869206525524E-17   3.00000000000000E-02
      3.00000000000000E-02   0.00000000000000E+00   0.00000000000000E+00   0.00000000000000E+00   0.00000000000000E+00
      0.00000000000000E+00  -7.76164153341330E-18
      1.40000000000000E-01
      0.00000000000000E+00   0.00000000000000E+00   0.00000000000000E+00   0.00000000000000E+00  -9.58667662517233E-14
     -8.10536450528649E-14  -1.76920411304588E-13  -9.43140599417681E-18   5.60000000000000E-02   5.60000000000000E-02
      0.00000000000000E+00   0.00000000000000E+00   0.00000000000000E+00   0.00000000000000E+00   0.00000000000000E+00
      5.39775168585836E-18   4.00000000000000E-02   4.00000000000000E-02   0.00000000000000E+00   0.00000000000000E+00
      1.73335232930761E-13   3.58517837382753E-15   1.76920411304588E-13   1.28435283866621E-17   3.00000000000000E-02
      3.00000000000000E-02   0.00000000000000E+00   0.00000000000000E+00   0.00000000000000E+00   0.00000000000000E+00
      0.00000000000000E+00  -8.80987407834361E-18
      1.50000000000000E-01
      0.00000000000000E+00   0.00000000000000E+00   0.00000000000000E+00   0.00000000000000E+00  -9.67145085376882E-14
     -7.85011286860071E-14  -1.75215637223695E-13  -9.47726980143313E-18   6.00000000000000E-02   6.00000000000000E-02
      0.00000000000000E+00   0.00000000000000E+00   0.00000000000000E+00   0.00000000000000E+00   0.00000000000000E+00
      6.53527985037821E-18   4.00000000000000E-02   4.00000000000000E-02   0.00000000000000E+00   0.00000000000000E+00
      1.71652292323447E-13   3.56334490024852E-15   1.75215637223695E-13   1.28001242412124E-17   3.00000000000000E-02
      3.00000000000000E-02   0.00000000000000E+00   0.00000000000000E+00   0.00000000000000E+00   0.00000000000000E+00
      0.00000000000000E+00  -9.85813429015750E-18
      1.60000000000000E-01
      0.00000000000000E+00   0.00000000000000E+00   0.00000000000000E+00   0.00000000000000E+00  -9.75656141158089E-14
     -7.64592599936522E-14  -1.74024874109461E-13  -9.52306784328890E-18   6.40000000000000E-02   6.40000000000000E-02
      0.00000000000000E+00   0.00000000000000E+00   0.00000000000000E+00   0.00000000000000E+00   0.00000000000000E+00
      7.67278123970425E-18   4.00000000000000E-02   4.00000000000000E-02   0.00000000000000E+00   0.00000000000000E+00
      1.70483330136576E-13   3.54154397288458E-15   1.74024874109461E-13   1.27567078429947E-17   3.00000000000000E-02
      3.00000000000000E-02   0.00000000000000E+00   0.00000000000000E+00   0.00000000000000E+00   0.00000000000000E+00
      0.00000000000000E+00  -1.09064212394101E-17
      1.70000000000000E-01
      0.00000000000000E+00   0.00000000000000E+00   0.00000000000000E+00   0.00000000000000E+00  -9.84200553083872E-14
     -7.48724173166301E-14  -1.73292472625017E-13  -9.56880157571689E-18   6.80000000000000E-02   6.80000000000000E-02
      0.00000000000000E+00   0.00000000000000E+00   0.00000000000000E+00   0.00000000000000E+00   0.00000000000000E+00
      8.81025676935789E-18   4.00000000000000E-02   4.00000000000000E-02   0.00000000000000E+00   0.00000000000000E+00
      1.69772697709540E-13   3.51977491547717E-15   1.73292472625017E-13   1.27132788214092E-17   3.00000000000000E-02
      3.00000000000000E-02   0.00000000000000E+00   0.00000000000000E+00   0.00000000000000E+00   0.00000000000000E+00
      0.00000000000000E+00  -1.19547340150503E-17
      1.80000000000000E-01
      0.00000000000000E+00   0.00000000000000E+00   0.00000000000000E+00   0.00000000000000E+00  -9.92778043318479E-14
     -7.36927205074010E-14  -1.72970524839249E-13  -9.61447242081340E-18   7.20000000000000E-02   7.20000000000000E-02
      0.00000000000000E+00   0.00000000000000E+00   0.00000000000000E+00   0.00000000000000E+00   0.00000000000000E+00
      9.94770733678074E-18   4.00000000000000E-02   4.00000000000000E-02   0.00000000000000E+00   0.00000000000000E+00
      1.69472487198436E-13   3.49803764081268E-15   1.72970524839249E-13   1.26698368077009E-17   3.00000000000000E-02
      3.00000000000000E-02   0.00000000000000E+00   0.00000000000000E+00   0.00000000000000E+00   0.00000000000000E+00
      0.00000000000000E+00  -1.30030717236682E-17
      1.90000000000000E-01
      0.00000000000000E+00   0.00000000000000E+00   0.00000000000000E+00   0.00000000000000E+00  -1.00138833310873E-13
     -7.28792354790258E-14  -1.73018068789899E-13  -9.66008176756916E-18   7.60000000000000E-02   7.60000000000000E-02
      0.00000000000000E+00   0.00000000000000E+00   0.00000000000000E+00   0.00000000000000E+00   0.00000000000000E+00
      1.10851338221013E-17   4.00000000000000E-02   4.00000000000000E-02   0.00000000000000E+00   0.00000000000000E+00
      1.69541734827306E-13   3.47633396259296E-15   1.73018068789899E-13   1.26263814342378E-17   3.00000000000000E-02
      3.00000000000000E-02   0.00000000000000E+00   0.00000000000000E+00   0.00000000000000E+00   0.00000000000000E+00
      0.00000000000000E+00  -1.40514334887699E-17
      2.00000000000000E-01
      0.00000000000000E+00   0.00000000000000E+00   0.00000000000000E+00   0.00000000000000E+00  -1.01003114286602E-13
     -7.23972777894203E-14  -1.73400392076023E-13  -9.70563097262494E-18   8.00000000000000E-02   8.00000000000000E-02
      0.00000000000000E+00   0.00000000000000E+00   0.00000000000000E+00   0.00000000000000E+00   0.00000000000000E+00
      1.22225370888724E-17   4.00000000000000E-02   4.00000000000000E-02   0.00000000000000E+00   0.00000000000000E+00
      1.69945728888055E-13   3.45466318796709E-15   1.73400392076022E-13   1.25829123338295E-17   3.00000000000000E-02
      3.00000000000000E-02   0.00000000000000E+00   0.00000000000000E+00   0.00000000000000E+00   0.00000000000000E+00
      0.00000000000000E+00  -1.50998184500769E-17
      2.10000000000000E-01
      0.00000000000000E+00   0.00000000000000E+00   0.00000000000000E+00   0.00000000000000E+00  -1.01870619232806E-13
     -7.22178230263039E-14  -1.74088442259110E-13  -9.75112136101257E-18   8.40000000000000E-02   8.40000000000000E-02
      0.00000000000000E+00   0.00000000000000E+00   0.00000000000000E+00   0.00000000000000E+00   0.00000000000000E+00
      1.33599179847815E-17   4.00000000000000E-02   4.00000000000000E-02   0.00000000000000E+00   0.00000000000000E+00
      1.70655416369246E-13   3.43302588986433E-15   1.74088442259110E-13   1.25394291390821E-17   3.00000000000000E-02
      3.00000000000000E-02   0.00000000000000E+00   0.00000000000000E+00   0.00000000000000E+00   0.00000000000000E+00
      0.00000000000000E+00  -1.61482257628510E-17
      2.20000000000000E-01
      0.00000000000000E+00   0.00000000000000E+00   0.00000000000000E+00   0.00000000000000E+00  -1.02741320064707E-13
     -7.23170047203753E-14  -1.75058324785082E-13  -9.79655422688080E-18   8.80000000000000E-02   8.80000000000000E-02
      0.00000000000000E+00   0.00000000000000E+00   0.00000000000000E+00   0.00000000000000E+00   0.00000000000000E+00
      1.44972773423358E-17   4.00000000000000E-02   4.00000000000000E-02   0.00000000000000E+00   0.00000000000000E+00
      1.71646902882267E-13   3.41142190281556E-15   1.75058324785082E-13   1.24959314817853E-17   3.00000000000000E-02
      3.00000000000000E-02   0.00000000000000E+00   0.00000000000000E+00   0.00000000000000E+00   0.00000000000000E+00
      0.00000000000000E+00  -1.71966545972403E-17
      2.30000000000000E-01
      0.00000000000000E+00   0.00000000000000E+00   0.00000000000000E+00   0.00000000000000E+00  -1.03615188653504E-13
     -7.26757050022011E-14  -1.76290893655706E-13  -9.84193083420681E-18   9.20000000000000E-02   9.20000000000000E-02
      0.00000000000000E+00   0.00000000000000E+00   0.00000000000000E+00   0.00000000000000E+00   0.00000000000000E+00
      1.56346159795229E-17   4.00000000000000E-02   4.00000000000000E-02   0.00000000000000E+00   0.00000000000000E+00
      1.72901041406166E-13   3.38985224953938E-15   1.76290893655706E-13   1.24524189923306E-17   3.00000000000000E-02
      3.00000000000000E-02   0.00000000000000E+00   0.00000000000000E+00   0.00000000000000E+00   0.00000000000000E+00
      0.00000000000000E+00  -1.82451041376467E-17
      2.40000000000000E-01
      0.00000000000000E+00   0.00000000000000E+00   0.00000000000000E+00   0.00000000000000E+00  -1.04492196833902E-13
     -7.32792264427280E-14  -1.77771423276630E-13  -9.88725241749296E-18   9.60000000000000E-02   9.60000000000000E-02
      0.00000000000000E+00   0.00000000000000E+00   0.00000000000000E+00   0.00000000000000E+00   0.00000000000000E+00
      1.67719347004499E-17   4.00000000000000E-02   4.00000000000000E-02   0.00000000000000E+00   0.00000000000000E+00
      1.74403106175475E-13   3.36831710115499E-15   1.77771423276630E-13   1.24088912991564E-17   3.00000000000000E-02
      3.00000000000000E-02   0.00000000000000E+00   0.00000000000000E+00   0.00000000000000E+00   0.00000000000000E+00
      0.00000000000000E+00  -1.92935735821134E-17
      2.50000000000000E-01
      0.00000000000000E+00   0.00000000000000E+00   0.00000000000000E+00   0.00000000000000E+00  -1.05372316416744E-13
     -7.41170490721213E-14  -1.79489365488865E-13  -9.93252018244946E-18   1.00000000000000E-01   1.00000000000000E-01
      0.00000000000000E+00   0.00000000000000E+00   0.00000000000000E+00   0.00000000000000E+00   0.00000000000000E+00
      1.79092342959617E-17   4.00000000000000E-02   4.00000000000000E-02   0.00000000000000E+00   0.00000000000000E+00
      1.76142548891218E-13   3.34681659764717E-15   1.79489365488865E-13   1.23653480282177E-17   3.00000000000000E-02
      3.00000000000000E-02   0.00000000000000E+00   0.00000000000000E+00   0.00000000000000E+00   0.00000000000000E+00
      0.00000000000000E+00  -2.03420621417300E-17
      2.60000000000000E-01
      0.00000000000000E+00   0.00000000000000E+00   0.00000000000000E+00   0.00000000000000E+00  -1.06255519197747E-13
     -7.51826669832057E-14  -1.81438186180952E-13  -9.97773530666276E-18   1.04000000000000E-01   1.04000000000000E-01
      0.00000000000000E+00   0.00000000000000E+00   0.00000000000000E+00   0.00000000000000E+00   0.00000000000000E+00
      1.90465155442400E-17   4.00000000000000E-02   4.00000000000000E-02   0.00000000000000E+00   0.00000000000000E+00
      1.78112835245152E-13   3.32535093580081E-15   1.81438186180952E-13   1.23217888024784E-17   3.00000000000000E-02
      3.00000000000000E-02   0.00000000000000E+00   0.00000000000000E+00   0.00000000000000E+00   0.00000000000000E+00
      0.00000000000000E+00  -2.13905690400556E-17
      2.70000000000000E-01
      0.00000000000000E+00   0.00000000000000E+00   0.00000000000000E+00   0.00000000000000E+00  -1.07141776970975E-13
     -7.64735044528400E-14  -1.83615281423815E-13  -1.00228989402501E-17   1.08000000000000E-01   1.08000000000000E-01
      0.00000000000000E+00   0.00000000000000E+00   0.00000000000000E+00   0.00000000000000E+00   0.00000000000000E+00
      2.01837792113841E-17   4.00000000000000E-02   4.00000000000000E-02   0.00000000000000E+00   0.00000000000000E+00
      1.80311360593711E-13   3.30392083010337E-15   1.83615281423815E-13   1.22782132414238E-17   3.00000000000000E-02
      3.00000000000000E-02   0.00000000000000E+00   0.00000000000000E+00   0.00000000000000E+00   0.00000000000000E+00
      0.00000000000000E+00  -2.24390935125579E-17
      2.80000000000000E-01
      0.00000000000000E+00   0.00000000000000E+00   0.00000000000000E+00   0.00000000000000E+00  -1.08031061533604E-13
     -7.79909090185593E-14  -1.86021970552164E-13  -1.00680122065000E-17   1.12000000000000E-01   1.12000000000000E-01
      0.00000000000000E+00   0.00000000000000E+00   0.00000000000000E+00   0.00000000000000E+00   0.00000000000000E+00
      2.13210260519751E-17   4.00000000000000E-02   4.00000000000000E-02   0.00000000000000E+00   0.00000000000000E+00
      1.82739444420567E-13   3.28252613159677E-15   1.86021970552164E-13   1.22346209605917E-17   3.00000000000000E-02
      3.00000000000000E-02   0.00000000000000E+00   0.00000000000000E+00   0.00000000000000E+00   0.00000000000000E+00
      0.00000000000000E+00  -2.34876348060667E-17
      2.90000000000000E-01
      0.00000000000000E+00   0.00000000000000E+00   0.00000000000000E+00   0.00000000000000E+00  -1.08923344698651E-13
     -7.97402265356057E-14  -1.88663571234257E-13  -1.01130762024999E-17   1.16000000000000E-01   1.16000000000000E-01
      0.00000000000000E+00   0.00000000000000E+00   0.00000000000000E+00   0.00000000000000E+00   0.00000000000000E+00
      2.24582568096239E-17   4.00000000000000E-02   4.00000000000000E-02   0.00000000000000E+00   0.00000000000000E+00
      1.85402404074983E-13   3.26116715927349E-15   1.88663571234257E-13   1.21910115711189E-17   3.00000000000000E-02
      3.00000000000000E-02   0.00000000000000E+00   0.00000000000000E+00   0.00000000000000E+00   0.00000000000000E+00
      0.00000000000000E+00  -2.45361921782430E-17
      3.00000000000000E-01
      0.00000000000000E+00   0.00000000000000E+00   0.00000000000000E+00   0.00000000000000E+00  -1.09818598305711E-13
     -8.17309549950271E-14  -1.91549553300738E-13  -1.01580919997494E-17   1.20000000000000E-01   1.20000000000000E-01
      0.00000000000000E+00   0.00000000000000E+00   0.00000000000000E+00   0.00000000000000E+00   0.00000000000000E+00
      2.35954722175058E-17   4.00000000000000E-02   4.00000000000000E-02   0.00000000000000E+00   0.00000000000000E+00
      1.88309709056520E-13   3.23984424421855E-15   1.91549553300739E-13   1.21473846793031E-17   3.00000000000000E-02
      3.00000000000000E-02   0.00000000000000E+00   0.00000000000000E+00   0.00000000000000E+00   0.00000000000000E+00
      0.00000000000000E+00  -2.55847648970595E-17
      3.10000000000000E-01
      0.00000000000000E+00   0.00000000000000E+00   0.00000000000000E+00   0.00000000000000E+00  -1.10716794226986E-13
     -8.39769811431581E-14  -1.94693775370144E-13  -1.02030606447610E-17   1.24000000000000E-01   1.24000000000000E-01
      0.00000000000000E+00   0.00000000000000E+00   0.00000000000000E+00   0.00000000000000E+00   0.00000000000000E+00
      2.47326729988797E-17   4.00000000000000E-02   4.00000000000000E-02   0.00000000000000E+00   0.00000000000000E+00
      1.91475217923655E-13   3.21855744648864E-15   1.94693775370144E-13   1.21037398861767E-17   3.00000000000000E-02
      3.00000000000000E-02   0.00000000000000E+00   0.00000000000000E+00   0.00000000000000E+00   0.00000000000000E+00
      0.00000000000000E+00  -2.66333522402954E-17
      3.20000000000000E-01
      0.00000000000000E+00   0.00000000000000E+00   0.00000000000000E+00   0.00000000000000E+00  -1.11617904381511E-13
     -8.64969035571850E-14  -1.98114807938696E-13  -1.02479831596479E-17   1.28000000000000E-01   1.28000000000000E-01
      0.00000000000000E+00   0.00000000000000E+00   0.00000000000000E+00   0.00000000000000E+00   0.00000000000000E+00
      2.58698598675961E-17   4.00000000000000E-02   4.00000000000000E-02   0.00000000000000E+00   0.00000000000000E+00
      1.94917500707528E-13   3.19730723116892E-15   1.98114807938696E-13   1.20600767870930E-17   3.00000000000000E-02
      3.00000000000000E-02   0.00000000000000E+00   0.00000000000000E+00   0.00000000000000E+00   0.00000000000000E+00
      0.00000000000000E+00  -2.76819534950412E-17
      3.30000000000000E-01
      0.00000000000000E+00   0.00000000000000E+00   0.00000000000000E+00   0.00000000000000E+00  -1.12521900735836E-13
     -8.93144431773808E-14  -2.01836343913216E-13  -1.02928605426987E-17   1.32000000000000E-01   1.32000000000000E-01
      0.00000000000000E+00   0.00000000000000E+00   0.00000000000000E+00   0.00000000000000E+00   0.00000000000000E+00
      2.70070335285926E-17   4.00000000000000E-02   4.00000000000000E-02   0.00000000000000E+00   0.00000000000000E+00
      1.98660250451651E-13   3.17609346156538E-15   2.01836343913216E-13   1.20163949713213E-17   3.00000000000000E-02
      3.00000000000000E-02   0.00000000000000E+00   0.00000000000000E+00   0.00000000000000E+00   0.00000000000000E+00
      0.00000000000000E+00  -2.87305679572152E-17
      3.40000000000000E-01
      0.00000000000000E+00   0.00000000000000E+00   0.00000000000000E+00   0.00000000000000E+00  -1.13428755323164E-13
     -9.24589494205220E-14  -2.05887704743686E-13  -1.03376937689395E-17   1.36000000000000E-01   1.36000000000000E-01
      0.00000000000000E+00   0.00000000000000E+00   0.00000000000000E+00   0.00000000000000E+00   0.00000000000000E+00
      2.81441946783786E-17   4.00000000000000E-02   4.00000000000000E-02   0.00000000000000E+00   0.00000000000000E+00
      2.02732788311362E-13   3.15491643232344E-15   2.05887704743686E-13   1.19726940216508E-17   3.00000000000000E-02
      3.00000000000000E-02   0.00000000000000E+00   0.00000000000000E+00   0.00000000000000E+00   0.00000000000000E+00
      0.00000000000000E+00  -2.97791949310899E-17
      3.50000000000000E-01
      0.00000000000000E+00   0.00000000000000E+00   0.00000000000000E+00   0.00000000000000E+00  -1.14338440247988E-13
     -9.59660033660160E-14  -2.10304443614004E-13  -1.03824837906838E-17   1.40000000000000E-01   1.40000000000000E-01
      0.00000000000000E+00   0.00000000000000E+00   0.00000000000000E+00   0.00000000000000E+00   0.00000000000000E+00
      2.92813440055093E-17   4.00000000000000E-02   4.00000000000000E-02   0.00000000000000E+00   0.00000000000000E+00
      2.07170667324105E-13   3.13377628989919E-15   2.10304443614004E-13   1.19289735140018E-17   3.00000000000000E-02
      3.00000000000000E-02   0.00000000000000E+00   0.00000000000000E+00   0.00000000000000E+00   0.00000000000000E+00
      0.00000000000000E+00  -3.08278337288273E-17
      3.60000000000000E-01
      0.00000000000000E+00   0.00000000000000E+00   0.00000000000000E+00   0.00000000000000E+00  -1.15250927690760E-13
     -9.98781260087967E-14  -2.15129053699556E-13  -1.04272315380706E-17   1.44000000000000E-01   1.44000000000000E-01
      0.00000000000000E+00   0.00000000000000E+00   0.00000000000000E+00   0.00000000000000E+00   0.00000000000000E+00
      3.04184821910516E-17   4.00000000000000E-02   4.00000000000000E-02   0.00000000000000E+00   0.00000000000000E+00
      2.12016380733268E-13   3.11267296628874E-15   2.15129053699556E-13   1.18852330170427E-17   3.00000000000000E-02
      3.00000000000000E-02   0.00000000000000E+00   0.00000000000000E+00   0.00000000000000E+00   0.00000000000000E+00
      0.00000000000000E+00  -3.18764836700236E-17
      3.70000000000000E-01
      0.00000000000000E+00   0.00000000000000E+00   0.00000000000000E+00   0.00000000000000E+00  -1.16166189926628E-13