DF-ISE text

Info {
  version   = 1.0
  type      = xyplot
  datasets  = [
    "time"
    "source OuterVoltage" "source InnerVoltage" "source QuasiFermiPotential" "source DisplacementCurrent" "source eCurrent"
    "source hCurrent" "source TotalCurrent" "source Charge" "topGate OuterVoltage" "topGate InnerVoltage"
    "topGate QuasiFermiPotential" "topGate DisplacementCurrent" "topGate eCurrent" "topGate hCurrent" "topGate TotalCurrent"
    "topGate Charge" "drain OuterVoltage" "drain InnerVoltage" "drain QuasiFermiPotential" "drain DisplacementCurrent"
    "drain eCurrent" "drain hCurrent" "drain TotalCurrent" "drain Charge" "bottomGate OuterVoltage"
    "bottomGate InnerVoltage" "bottomGate QuasiFermiPotential" "bottomGate DisplacementCurrent" "bottomGate eCurrent" "bottomGate hCurrent"
    "bottomGate TotalCurrent" "bottomGate Charge" ]
  functions = [
    Time
    OuterVoltage InnerVoltage QuasiFermiPotential DisplacementCurrent eCurrent
    hCurrent TotalCurrent Charge OuterVoltage InnerVoltage
    QuasiFermiPotential DisplacementCurrent eCurrent hCurrent TotalCurrent
    Charge OuterVoltage InnerVoltage QuasiFermiPotential DisplacementCurrent
    eCurrent hCurrent TotalCurrent Charge OuterVoltage
    InnerVoltage QuasiFermiPotential DisplacementCurrent eCurrent hCurrent
    TotalCurrent Charge ]
}

Data {
      1.00000000000000E-02
      0.00000000000000E+00   0.00000000000000E+00   0.00000000000000E+00   0.00000000000000E+00  -1.18584608491199E-13
     -1.59752050208469E-10  -1.59870634816960E-10  -9.29354305724870E-18   4.00000000000000E-03   4.00000000000000E-03
      0.00000000000000E+00   0.00000000000000E+00   0.00000000000000E+00   0.00000000000000E+00   0.00000000000000E+00
     -2.28746714991741E-17   3.20000000000000E-01   3.20000000000000E-01   0.00000000000000E+00   0.00000000000000E+00
      1.59866209793274E-10   4.42502368623397E-15   1.59870634816960E-10   1.89773730246552E-17   7.00000000000000E-02
      7.00000000000000E-02   0.00000000000000E+00   0.00000000000000E+00   0.00000000000000E+00   0.00000000000000E+00
      0.00000000000000E+00   1.31908415317676E-17
      2.00000000000000E-02
      0.00000000000000E+00   0.00000000000000E+00   0.00000000000000E+00   0.00000000000000E+00  -1.19648506347610E-13
     -1.51940060369961E-10  -1.52059708876308E-10  -9.33961311746026E-18   8.00000000000000E-03   8.00000000000000E-03
      0.00000000000000E+00   0.00000000000000E+00   0.00000000000000E+00   0.00000000000000E+00   0.00000000000000E+00
     -2.17373978587918E-17   3.20000000000000E-01   3.20000000000000E-01   0.00000000000000E+00   0.00000000000000E+00
      1.52055002506138E-10   4.70637017053927E-15   1.52059708876308E-10   1.89346849984321E-17   7.00000000000000E-02
      7.00000000000000E-02   0.00000000000000E+00   0.00000000000000E+00   0.00000000000000E+00   0.00000000000000E+00
      0.00000000000000E+00   1.21423259778200E-17
      3.00000000000000E-02
      0.00000000000000E+00   0.00000000000000E+00   0.00000000000000E+00   0.00000000000000E+00  -1.20716781540751E-13
     -1.44557541265366E-10  -1.44678258046907E-10  -9.38561283227538E-18   1.20000000000000E-02   1.20000000000000E-02
      0.00000000000000E+00   0.00000000000000E+00   0.00000000000000E+00   0.00000000000000E+00   0.00000000000000E+00
     -2.06001596638628E-17   3.20000000000000E-01   3.20000000000000E-01   0.00000000000000E+00   0.00000000000000E+00
      1.44673291523102E-10   4.96652380521815E-15   1.44678258046907E-10   1.88919974147222E-17   7.00000000000000E-02
      7.00000000000000E-02   0.00000000000000E+00   0.00000000000000E+00   0.00000000000000E+00   0.00000000000000E+00
      0.00000000000000E+00   1.10937750814160E-17
      4.00000000000000E-02
      0.00000000000000E+00   0.00000000000000E+00   0.00000000000000E+00   0.00000000000000E+00  -1.21789399834503E-13
     -1.37583143639570E-10  -1.37704933039404E-10  -9.43154376437593E-18   1.60000000000000E-02   1.60000000000000E-02
      0.00000000000000E+00   0.00000000000000E+00   0.00000000000000E+00   0.00000000000000E+00   0.00000000000000E+00
     -1.94629560487823E-17   3.20000000000000E-01   3.20000000000000E-01   0.00000000000000E+00   0.00000000000000E+00
      1.37699726208780E-10   5.20683062409602E-15   1.37704933039404E-10   1.88493101146418E-17   7.00000000000000E-02
      7.00000000000000E-02   0.00000000000000E+00   0.00000000000000E+00   0.00000000000000E+00   0.00000000000000E+00
      0.00000000000000E+00   1.00451896985165E-17
      5.00000000000000E-02
      0.00000000000000E+00   0.00000000000000E+00   0.00000000000000E+00   0.00000000000000E+00  -1.22866326752843E-13
     -1.30996459817438E-10  -1.31119326144191E-10  -9.47740744014252E-18   2.00000000000000E-02   2.00000000000000E-02
      0.00000000000000E+00   0.00000000000000E+00   0.00000000000000E+00   0.00000000000000E+00   0.00000000000000E+00
     -1.83257861716418E-17   3.20000000000000E-01   3.20000000000000E-01   0.00000000000000E+00   0.00000000000000E+00
      1.31113897587698E-10   5.42855649256588E-15   1.31119326144191E-10   1.88066229495349E-17   7.00000000000000E-02
      7.00000000000000E-02   0.00000000000000E+00   0.00000000000000E+00   0.00000000000000E+00   0.00000000000000E+00
      0.00000000000000E+00   8.99657066224941E-18
      6.00000000000000E-02
      0.00000000000000E+00   0.00000000000000E+00   0.00000000000000E+00   0.00000000000000E+00  -1.23947527607581E-13
     -1.24777991784054E-10  -1.24901939311662E-10  -9.52320535047226E-18   2.40000000000000E-02   2.40000000000000E-02
      0.00000000000000E+00   0.00000000000000E+00   0.00000000000000E+00   0.00000000000000E+00   0.00000000000000E+00
     -1.71886492133794E-17   3.20000000000000E-01   3.20000000000000E-01   0.00000000000000E+00   0.00000000000000E+00
      1.24896306417229E-10   5.63289443254070E-15   1.24901939311662E-10   1.87639357801675E-17   7.00000000000000E-02
      7.00000000000000E-02   0.00000000000000E+00   0.00000000000000E+00   0.00000000000000E+00   0.00000000000000E+00
      0.00000000000000E+00   7.94791878368417E-18
      7.00000000000000E-02
      0.00000000000000E+00   0.00000000000000E+00   0.00000000000000E+00   0.00000000000000E+00  -1.25032967524587E-13
     -1.18909119870517E-10  -1.19034152838042E-10  -9.56893895158104E-18   2.80000000000000E-02   2.80000000000000E-02
      0.00000000000000E+00   0.00000000000000E+00   0.00000000000000E+00   0.00000000000000E+00   0.00000000000000E+00
     -1.60515443769728E-17   3.20000000000000E-01   3.20000000000000E-01   0.00000000000000E+00   0.00000000000000E+00
      1.19028331870528E-10   5.82096751397563E-15   1.19034152838042E-10   1.87212484759835E-17   7.00000000000000E-02
      7.00000000000000E-02   0.00000000000000E+00   0.00000000000000E+00   0.00000000000000E+00   0.00000000000000E+00
      0.00000000000000E+00   6.89923485257036E-18
      8.00000000000000E-02
      0.00000000000000E+00   0.00000000000000E+00   0.00000000000000E+00   0.00000000000000E+00  -1.26122611468597E-13
     -1.13372072056684E-10  -1.13498194668152E-10  -9.61460966579047E-18   3.20000000000000E-02   3.20000000000000E-02
      0.00000000000000E+00   0.00000000000000E+00   0.00000000000000E+00   0.00000000000000E+00   0.00000000000000E+00
     -1.49144708866697E-17   3.20000000000000E-01   3.20000000000000E-01   0.00000000000000E+00   0.00000000000000E+00
      1.13492200837090E-10   5.99383106250867E-15   1.13498194668152E-10   1.86785609144168E-17   7.00000000000000E-02
      7.00000000000000E-02   0.00000000000000E+00   0.00000000000000E+00   0.00000000000000E+00   0.00000000000000E+00
      0.00000000000000E+00   5.85051963804330E-18
      9.00000000000000E-02
      0.00000000000000E+00   0.00000000000000E+00   0.00000000000000E+00   0.00000000000000E+00  -1.27216424266711E-13
     -1.08149893903572E-10  -1.08277110327839E-10  -9.66021888229974E-18   3.60000000000000E-02   3.60000000000000E-02
      0.00000000000000E+00   0.00000000000000E+00   0.00000000000000E+00   0.00000000000000E+00   0.00000000000000E+00
     -1.37774279872560E-17   3.20000000000000E-01   3.20000000000000E-01   0.00000000000000E+00   0.00000000000000E+00
      1.08270957848006E-10   6.15247983312083E-15   1.08277110327839E-10   1.86358729802570E-17   7.00000000000000E-02
      7.00000000000000E-02   0.00000000000000E+00   0.00000000000000E+00   0.00000000000000E+00   0.00000000000000E+00
      0.00000000000000E+00   4.80177388929878E-18
      1.00000000000000E-01
      0.00000000000000E+00   0.00000000000000E+00   0.00000000000000E+00   0.00000000000000E+00  -1.28314370630631E-13
     -1.03226419108965E-10  -1.03354733479596E-10  -9.70576795794215E-18   4.00000000000000E-02   4.00000000000000E-02
      0.00000000000000E+00   0.00000000000000E+00   0.00000000000000E+00   0.00000000000000E+00   0.00000000000000E+00
     -1.26404149433582E-17   3.20000000000000E-01   3.20000000000000E-01   0.00000000000000E+00   0.00000000000000E+00
      1.03348435632432E-10   6.29784716391177E-15   1.03354733479596E-10   1.85931845650620E-17   7.00000000000000E-02
      7.00000000000000E-02   0.00000000000000E+00   0.00000000000000E+00   0.00000000000000E+00   0.00000000000000E+00
      0.00000000000000E+00   3.75299833623834E-18
      1.10000000000000E-01
      0.00000000000000E+00   0.00000000000000E+00   0.00000000000000E+00   0.00000000000000E+00  -1.29416415177736E-13
     -9.85862407065113E-11  -9.87156571216890E-11  -9.75125821792683E-18   4.40000000000000E-02   4.40000000000000E-02
      0.00000000000000E+00   0.00000000000000E+00   0.00000000000000E+00   0.00000000000000E+00   0.00000000000000E+00
     -1.15034310387766E-17   3.20000000000000E-01   3.20000000000000E-01   0.00000000000000E+00   0.00000000000000E+00
      9.87092263112295E-11   6.43081045947128E-15   9.87156571216889E-11   1.85504955666162E-17   7.00000000000000E-02
      7.00000000000000E-02   0.00000000000000E+00   0.00000000000000E+00   0.00000000000000E+00   0.00000000000000E+00
      0.00000000000000E+00   2.70419369008724E-18
      1.20000000000000E-01
      0.00000000000000E+00   0.00000000000000E+00   0.00000000000000E+00   0.00000000000000E+00  -1.30522522451051E-13
     -9.42146829041105E-11  -9.43452054265616E-11  -9.79669095656561E-18   4.80000000000000E-02   4.80000000000000E-02
      0.00000000000000E+00   0.00000000000000E+00   0.00000000000000E+00   0.00000000000000E+00   0.00000000000000E+00
     -1.03664755758501E-17   3.20000000000000E-01   3.20000000000000E-01   0.00000000000000E+00   0.00000000000000E+00
      9.43386532331425E-11   6.55219341904753E-15   9.43452054265615E-11   1.85078058884292E-17   7.00000000000000E-02
      7.00000000000000E-02   0.00000000000000E+00   0.00000000000000E+00   0.00000000000000E+00   0.00000000000000E+00
      0.00000000000000E+00   1.65536064398654E-18
      1.30000000000000E-01
      0.00000000000000E+00   0.00000000000000E+00   0.00000000000000E+00   0.00000000000000E+00  -1.31632656938175E-13
     -9.00977735723790E-11  -9.02294062293172E-11  -9.84206743798525E-18   5.20000000000000E-02   5.20000000000000E-02
      0.00000000000000E+00   0.00000000000000E+00   0.00000000000000E+00   0.00000000000000E+00   0.00000000000000E+00
     -9.22954787484778E-18   3.20000000000000E-01   3.20000000000000E-01   0.00000000000000E+00   0.00000000000000E+00
      9.02227434583041E-11   6.66277101302845E-15   9.02294062293172E-11   1.84651154392722E-17   7.00000000000000E-02
      7.00000000000000E-02   0.00000000000000E+00   0.00000000000000E+00   0.00000000000000E+00   0.00000000000000E+00
      0.00000000000000E+00   6.06499873560796E-19
      1.40000000000000E-01
      0.00000000000000E+00   0.00000000000000E+00   0.00000000000000E+00   0.00000000000000E+00  -1.32746783089214E-13
     -8.62222173779266E-11  -8.63549641610158E-11  -9.88738889682502E-18   5.60000000000000E-02   5.60000000000000E-02
      0.00000000000000E+00   0.00000000000000E+00   0.00000000000000E+00   0.00000000000000E+00   0.00000000000000E+00
     -8.09264727338784E-18   3.20000000000000E-01   3.20000000000000E-01   0.00000000000000E+00   0.00000000000000E+00
      8.63482008932816E-11   6.76326773412639E-15   8.63549641610157E-11   1.84224241327500E-17   7.00000000000000E-02
      7.00000000000000E-02   0.00000000000000E+00   0.00000000000000E+00   0.00000000000000E+00   0.00000000000000E+00
      0.00000000000000E+00  -4.42387962537159E-19
      1.50000000000000E-01
      0.00000000000000E+00   0.00000000000000E+00   0.00000000000000E+00   0.00000000000000E+00  -1.33864865333799E-13
     -8.25753695813852E-11  -8.27092344467190E-11  -9.93265653892018E-18   6.00000000000000E-02   6.00000000000000E-02
      0.00000000000000E+00   0.00000000000000E+00   0.00000000000000E+00   0.00000000000000E+00   0.00000000000000E+00
     -6.95577312588099E-18   3.20000000000000E-01   3.20000000000000E-01   0.00000000000000E+00   0.00000000000000E+00
      8.27023800812703E-11   6.85436544876189E-15   8.27092344467191E-11   1.83797318869042E-17   7.00000000000000E-02
      7.00000000000000E-02   0.00000000000000E+00   0.00000000000000E+00   0.00000000000000E+00   0.00000000000000E+00
      0.00000000000000E+00  -1.49130222210308E-18
      1.60000000000000E-01
      0.00000000000000E+00   0.00000000000000E+00   0.00000000000000E+00   0.00000000000000E+00  -1.34986868097207E-13
     -7.91452104848722E-11  -7.92801973529694E-11  -9.97787154197106E-18   6.40000000000000E-02   6.40000000000000E-02
      0.00000000000000E+00   0.00000000000000E+00   0.00000000000000E+00   0.00000000000000E+00   0.00000000000000E+00
     -5.81892480299722E-18   3.20000000000000E-01   3.20000000000000E-01   0.00000000000000E+00   0.00000000000000E+00
      7.92732606504731E-11   6.93670249643463E-15   7.92801973529695E-11   1.83370386238470E-17   7.00000000000000E-02
      7.00000000000000E-02   0.00000000000000E+00   0.00000000000000E+00   0.00000000000000E+00   0.00000000000000E+00
      0.00000000000000E+00  -2.54024227887873E-18
      1.70000000000000E-01
      0.00000000000000E+00   0.00000000000000E+00   0.00000000000000E+00   0.00000000000000E+00  -1.36112755815653E-13
     -7.59203205449451E-11  -7.60564333007607E-11  -1.00230350561984E-17   6.80000000000000E-02   6.80000000000000E-02
      0.00000000000000E+00   0.00000000000000E+00   0.00000000000000E+00   0.00000000000000E+00   0.00000000000000E+00
     -4.68210169115464E-18   3.20000000000000E-01   3.20000000000000E-01   0.00000000000000E+00   0.00000000000000E+00
      7.60494224231197E-11   7.01087764103212E-15   7.60564333007607E-11   1.82943442694216E-17   7.00000000000000E-02
      7.00000000000000E-02   0.00000000000000E+00   0.00000000000000E+00   0.00000000000000E+00   0.00000000000000E+00
      0.00000000000000E+00  -3.58920752206854E-18
      1.80000000000000E-01
      0.00000000000000E+00   0.00000000000000E+00   0.00000000000000E+00   0.00000000000000E+00  -1.37242492950791E-13
     -7.28898561452526E-11  -7.30270986382034E-11  -1.00681482049846E-17   7.20000000000000E-02   7.20000000000000E-02
      0.00000000000000E+00   0.00000000000000E+00   0.00000000000000E+00   0.00000000000000E+00   0.00000000000000E+00
     -3.54530319202903E-18   3.20000000000000E-01   3.20000000000000E-01   0.00000000000000E+00   0.00000000000000E+00
      7.30200211870023E-11   7.07745120108597E-15   7.30270986382034E-11   1.82516487528882E-17   7.00000000000000E-02
      7.00000000000000E-02   0.00000000000000E+00   0.00000000000000E+00   0.00000000000000E+00   0.00000000000000E+00
      0.00000000000000E+00  -4.63819735587461E-18
      1.90000000000000E-01
      0.00000000000000E+00   0.00000000000000E+00   0.00000000000000E+00   0.00000000000000E+00  -1.38376044003465E-13
     -7.00435260346464E-11  -7.01819020786499E-11  -1.01132120855017E-17   7.60000000000000E-02   7.60000000000000E-02
      0.00000000000000E+00   0.00000000000000E+00   0.00000000000000E+00   0.00000000000000E+00   0.00000000000000E+00
     -2.40852872208285E-18   3.20000000000000E-01   3.20000000000000E-01   0.00000000000000E+00   0.00000000000000E+00
      7.01747651308522E-11   7.13694779767331E-15   7.01819020786499E-11   1.82089520066335E-17   7.00000000000000E-02
      7.00000000000000E-02   0.00000000000000E+00   0.00000000000000E+00   0.00000000000000E+00   0.00000000000000E+00
      0.00000000000000E+00  -5.68721119904902E-18
      2.00000000000000E-01
      0.00000000000000E+00   0.00000000000000E+00   0.00000000000000E+00   0.00000000000000E+00  -1.39513373526748E-13
     -6.73715684301376E-11  -6.75110818036643E-11  -1.01582277693256E-17   8.00000000000000E-02   8.00000000000000E-02
      0.00000000000000E+00   0.00000000000000E+00   0.00000000000000E+00   0.00000000000000E+00   0.00000000000000E+00
     -1.27177771211285E-18   3.20000000000000E-01   3.20000000000000E-01   0.00000000000000E+00   0.00000000000000E+00
      6.75038919443282E-11   7.18985933614269E-15   6.75110818036643E-11   1.81662539659010E-17   7.00000000000000E-02
      7.00000000000000E-02   0.00000000000000E+00   0.00000000000000E+00   0.00000000000000E+00   0.00000000000000E+00
      0.00000000000000E+00  -6.73624848446258E-18
      2.10000000000000E-01
      0.00000000000000E+00   0.00000000000000E+00   0.00000000000000E+00   0.00000000000000E+00  -1.40654446138318E-13
     -6.48647287815081E-11  -6.50053832276464E-11  -1.02031963030377E-17   8.40000000000000E-02   8.40000000000000E-02
      0.00000000000000E+00   0.00000000000000E+00   0.00000000000000E+00   0.00000000000000E+00   0.00000000000000E+00
     -1.35049606814967E-19   3.20000000000000E-01   3.20000000000000E-01   0.00000000000000E+00   0.00000000000000E+00
      6.49981465828585E-11   7.23664478788671E-15   6.50053832276464E-11   1.81235545685418E-17   7.00000000000000E-02
      7.00000000000000E-02   0.00000000000000E+00   0.00000000000000E+00   0.00000000000000E+00   0.00000000000000E+00
      0.00000000000000E+00  -7.78530865868912E-18
      2.20000000000000E-01
      0.00000000000000E+00   0.00000000000000E+00   0.00000000000000E+00   0.00000000000000E+00  -1.41799226532194E-13
     -6.25142382049002E-11  -6.26560374314324E-11  -1.02481187088123E-17   8.80000000000000E-02   8.80000000000000E-02
      0.00000000000000E+00   0.00000000000000E+00   0.00000000000000E+00   0.00000000000000E+00   0.00000000000000E+00
      1.00165613563423E-18   3.20000000000000E-01   3.20000000000000E-01   0.00000000000000E+00   0.00000000000000E+00
      6.26487596970664E-11   7.27773436584549E-15   6.26560374314323E-11   1.80808537547827E-17   7.00000000000000E-02
      7.00000000000000E-02   0.00000000000000E+00   0.00000000000000E+00   0.00000000000000E+00   0.00000000000000E+00
      0.00000000000000E+00  -8.83439118160457E-18
      2.30000000000000E-01
      0.00000000000000E+00   0.00000000000000E+00   0.00000000000000E+00   0.00000000000000E+00  -1.42947679489875E-13
     -6.03117925762831E-11  -6.04547402557729E-11  -1.02929959849930E-17   9.20000000000000E-02   9.20000000000000E-02
      0.00000000000000E+00   0.00000000000000E+00   0.00000000000000E+00   0.00000000000000E+00   0.00000000000000E+00
      2.13834004398056E-18   3.20000000000000E-01   3.20000000000000E-01   0.00000000000000E+00   0.00000000000000E+00
      6.04474267260194E-11   7.31352975352691E-15   6.04547402557730E-11   1.80381514670126E-17   7.00000000000000E-02
      7.00000000000000E-02   0.00000000000000E+00   0.00000000000000E+00   0.00000000000000E+00   0.00000000000000E+00
      0.00000000000000E+00  -9.88349552600012E-18
      2.40000000000000E-01
      0.00000000000000E+00   0.00000000000000E+00   0.00000000000000E+00   0.00000000000000E+00  -1.44099769890925E-13
     -5.82495322893625E-11  -5.83936320592534E-11  -1.03378291066546E-17   9.60000000000000E-02   9.60000000000000E-02
      0.00000000000000E+00   0.00000000000000E+00   0.00000000000000E+00   0.00000000000000E+00   0.00000000000000E+00
      3.27500263428040E-18   3.20000000000000E-01   3.20000000000000E-01   0.00000000000000E+00   0.00000000000000E+00
      5.83862876530728E-11   7.34440618058032E-15   5.83936320592534E-11   1.79954476495829E-17   7.00000000000000E-02
      7.00000000000000E-02   0.00000000000000E+00   0.00000000000000E+00   0.00000000000000E+00   0.00000000000000E+00
      0.00000000000000E+00  -1.09326211772087E-17
      2.50000000000000E-01
      0.00000000000000E+00   0.00000000000000E+00   0.00000000000000E+00   0.00000000000000E+00  -1.45255462723016E-13
     -5.63200226741704E-11  -5.64652781368935E-11  -1.03826190261539E-17   1.00000000000000E-01   1.00000000000000E-01
      0.00000000000000E+00   0.00000000000000E+00   0.00000000000000E+00   0.00000000000000E+00   0.00000000000000E+00
      4.41164441027498E-18   3.20000000000000E-01   3.20000000000000E-01   0.00000000000000E+00   0.00000000000000E+00
      5.64579074226484E-11   7.37071424511208E-15   5.64652781368935E-11   1.79527422486230E-17   7.00000000000000E-02
      7.00000000000000E-02   0.00000000000000E+00   0.00000000000000E+00   0.00000000000000E+00   0.00000000000000E+00
      0.00000000000000E+00  -1.19817676327441E-17
      2.60000000000000E-01
      0.00000000000000E+00   0.00000000000000E+00   0.00000000000000E+00   0.00000000000000E+00  -1.46414723091492E-13
     -5.45162350738826E-11  -5.46626497969741E-11  -1.04273666736680E-17   1.04000000000000E-01   1.04000000000000E-01
      0.00000000000000E+00   0.00000000000000E+00   0.00000000000000E+00   0.00000000000000E+00   0.00000000000000E+00
      5.54826586375121E-18   3.20000000000000E-01   3.20000000000000E-01   0.00000000000000E+00   0.00000000000000E+00
      5.46552570158625E-11   7.39278111158344E-15   5.46626497969741E-11   1.79100352118692E-17   7.00000000000000E-02
      7.00000000000000E-02   0.00000000000000E+00   0.00000000000000E+00   0.00000000000000E+00   0.00000000000000E+00
      0.00000000000000E+00  -1.30309344019523E-17
      2.70000000000000E-01
      0.00000000000000E+00   0.00000000000000E+00   0.00000000000000E+00   0.00000000000000E+00  -1.47577516228454E-13
     -5.28315285785730E-11  -5.29791060948015E-11  -1.04720729577203E-17   1.08000000000000E-01   1.08000000000000E-01
      0.00000000000000E+00   0.00000000000000E+00   0.00000000000000E+00   0.00000000000000E+00   0.00000000000000E+00
      6.68486747489006E-18   3.20000000000000E-01   3.20000000000000E-01   0.00000000000000E+00   0.00000000000000E+00
      5.29716951825583E-11   7.41091224319502E-15   5.29791060948015E-11   1.78673264885048E-17   7.00000000000000E-02
      7.00000000000000E-02   0.00000000000000E+00   0.00000000000000E+00   0.00000000000000E+00   0.00000000000000E+00
      0.00000000000000E+00  -1.40801210056746E-17
      2.80000000000000E-01
      0.00000000000000E+00   0.00000000000000E+00   0.00000000000000E+00   0.00000000000000E+00  -1.48743807501429E-13
     -5.12596324116006E-11  -5.14083762191020E-11  -1.05167387656950E-17   1.12000000000000E-01   1.12000000000000E-01
      0.00000000000000E+00   0.00000000000000E+00   0.00000000000000E+00   0.00000000000000E+00   0.00000000000000E+00
      7.82144971260295E-18   3.20000000000000E-01   3.20000000000000E-01   0.00000000000000E+00   0.00000000000000E+00
      5.14009508269296E-11   7.42539217236455E-15   5.14083762191020E-11   1.78246160290128E-17   7.00000000000000E-02
      7.00000000000000E-02   0.00000000000000E+00   0.00000000000000E+00   0.00000000000000E+00   0.00000000000000E+00
      0.00000000000000E+00  -1.51293269759207E-17
      2.90000000000000E-01
      0.00000000000000E+00   0.00000000000000E+00   0.00000000000000E+00   0.00000000000000E+00  -1.49913562421623E-13
     -4.97946289677040E-11  -4.99445425301256E-11  -1.05613649643401E-17   1.16000000000000E-01   1.16000000000000E-01
      0.00000000000000E+00   0.00000000000000E+00   0.00000000000000E+00   0.00000000000000E+00   0.00000000000000E+00
      8.95801303485651E-18   3.20000000000000E-01   3.20000000000000E-01   0.00000000000000E+00   0.00000000000000E+00
      4.99371060436272E-11   7.43648649839205E-15   4.99445425301256E-11   1.77819037850376E-17   7.00000000000000E-02
      7.00000000000000E-02   0.00000000000000E+00   0.00000000000000E+00   0.00000000000000E+00   0.00000000000000E+00
      0.00000000000000E+00  -1.61785518555540E-17
      3.00000000000000E-01
      0.00000000000000E+00   0.00000000000000E+00   0.00000000000000E+00   0.00000000000000E+00  -1.51086746651809E-13
     -4.84309374968624E-11  -4.85820242435142E-11  -1.06059524002587E-17   1.20000000000000E-01   1.20000000000000E-01
      0.00000000000000E+00   0.00000000000000E+00   0.00000000000000E+00   0.00000000000000E+00   0.00000000000000E+00
      1.00945578889868E-17   3.20000000000000E-01   3.20000000000000E-01   0.00000000000000E+00   0.00000000000000E+00
      4.85745798009524E-11   7.44444256189408E-15   4.85820242435142E-11   1.77391897092572E-17   7.00000000000000E-02
      7.00000000000000E-02   0.00000000000000E+00   0.00000000000000E+00   0.00000000000000E+00   0.00000000000000E+00
      0.00000000000000E+00  -1.72277951979853E-17
      3.10000000000000E-01
      0.00000000000000E+00   0.00000000000000E+00   0.00000000000000E+00   0.00000000000000E+00  -1.52263326013870E-13
     -4.71632984322536E-11  -4.73155617582675E-11  -1.06505019003895E-17   1.24000000000000E-01   1.24000000000000E-01
      0.00000000000000E+00   0.00000000000000E+00   0.00000000000000E+00   0.00000000000000E+00   0.00000000000000E+00
      1.12310847120029E-17   3.20000000000000E-01   3.20000000000000E-01   0.00000000000000E+00   0.00000000000000E+00
      4.73081122675025E-11   7.44949076508203E-15   4.73155617582676E-11   1.76964737552636E-17   7.00000000000000E-02
      7.00000000000000E-02   0.00000000000000E+00   0.00000000000000E+00   0.00000000000000E+00   0.00000000000000E+00
      0.00000000000000E+00  -1.82770565668769E-17
      3.20000000000000E-01
      0.00000000000000E+00   0.00000000000000E+00   0.00000000000000E+00   0.00000000000000E+00  -1.53443266496022E-13
     -4.59867583575143E-11  -4.61402016240103E-11  -1.06950142724765E-17   1.28000000000000E-01   1.28000000000000E-01
      0.00000000000000E+00   0.00000000000000E+00   0.00000000000000E+00   0.00000000000000E+00   0.00000000000000E+00
      1.23675939308809E-17   3.20000000000000E-01   3.20000000000000E-01   0.00000000000000E+00   0.00000000000000E+00
      4.61327497784371E-11   7.45184557318993E-15   4.61402016240103E-11   1.76537558774518E-17   7.00000000000000E-02
      7.00000000000000E-02   0.00000000000000E+00   0.00000000000000E+00   0.00000000000000E+00   0.00000000000000E+00
      0.00000000000000E+00  -1.93263355358562E-17
      3.30000000000000E-01
      0.00000000000000E+00   0.00000000000000E+00   0.00000000000000E+00   0.00000000000000E+00  -1.54626534259738E-13
     -4.48966556097806E-11  -4.50512821440403E-11  -1.07394903055270E-17   1.32000000000000E-01   1.32000000000000E-01
      0.00000000000000E+00   0.00000000000000E+00   0.00000000000000E+00   0.00000000000000E+00   0.00000000000000E+00
      1.35040859628481E-17   3.20000000000000E-01   3.20000000000000E-01   0.00000000000000E+00   0.00000000000000E+00
      4.50438304373576E-11   7.45170668272256E-15   4.50512821440403E-11   1.76110360309158E-17   7.00000000000000E-02
      7.00000000000000E-02   0.00000000000000E+00   0.00000000000000E+00   0.00000000000000E+00   0.00000000000000E+00
      0.00000000000000E+00  -2.03756316882370E-17
      3.40000000000000E-01
      0.00000000000000E+00   0.00000000000000E+00   0.00000000000000E+00   0.00000000000000E+00  -1.55813095646411E-13
     -4.38886065137952E-11  -4.40444196094417E-11  -1.07839307702604E-17   1.36000000000000E-01   1.36000000000000E-01
      0.00000000000000E+00   0.00000000000000E+00   0.00000000000000E+00   0.00000000000000E+00   0.00000000000000E+00
      1.46405612156587E-17   3.20000000000000E-01   3.20000000000000E-01   0.00000000000000E+00   0.00000000000000E+00
      4.40369703496788E-11   7.44925976290351E-15   4.40444196094417E-11   1.75683141713521E-17   7.00000000000000E-02
      7.00000000000000E-02   0.00000000000000E+00   0.00000000000000E+00   0.00000000000000E+00   0.00000000000000E+00
      0.00000000000000E+00  -2.14249446167504E-17
      3.50000000000000E-01
      0.00000000000000E+00   0.00000000000000E+00   0.00000000000000E+00   0.00000000000000E+00  -1.57002917183758E-13
     -4.29584922435288E-11  -4.31154951607126E-11  -1.08283364195456E-17   1.40000000000000E-01   1.40000000000000E-01
      0.00000000000000E+00   0.00000000000000E+00   0.00000000000000E+00   0.00000000000000E+00   0.00000000000000E+00
      1.57770200878604E-17   3.20000000000000E-01   3.20000000000000E-01   0.00000000000000E+00   0.00000000000000E+00
      4.31080504832752E-11   7.44467743738985E-15   4.31154951607126E-11   1.75255902549682E-17   7.00000000000000E-02
      7.00000000000000E-02   0.00000000000000E+00   0.00000000000000E+00   0.00000000000000E+00   0.00000000000000E+00
      0.00000000000000E+00  -2.24742739232830E-17
      3.60000000000000E-01
      0.00000000000000E+00   0.00000000000000E+00   0.00000000000000E+00   0.00000000000000E+00  -1.58195965591994E-13
     -4.21024463068170E-11  -4.22606422724090E-11  -1.08727079888290E-17   1.44000000000000E-01   1.44000000000000E-01
      0.00000000000000E+00   0.00000000000000E+00   0.00000000000000E+00   0.00000000000000E+00   0.00000000000000E+00
      1.69134629690531E-17   3.20000000000000E-01   3.20000000000000E-01   0.00000000000000E+00   0.00000000000000E+00
      4.22532041521414E-11   7.43812026761520E-15   4.22606422724090E-11   1.74828642383992E-17   7.00000000000000E-02
      7.00000000000000E-02   0.00000000000000E+00   0.00000000000000E+00   0.00000000000000E+00   0.00000000000000E+00
      0.00000000000000E+00  -2.35236192186233E-17
      3.70000000000000E-01
      0.00000000000000E+00   0.00000000000000E+00   0.00000000000000E+00   0.00000000000000E+00  -1.59392207789800E-13