DF-ISE text

Info {
  version   = 1.0
  type      = xyplot
  datasets  = [
    "time"
    "source OuterVoltage" "source InnerVoltage" "source QuasiFermiPotential" "source DisplacementCurrent" "source eCurrent"
    "source hCurrent" "source TotalCurrent" "source Charge" "topGate OuterVoltage" "topGate InnerVoltage"
    "topGate QuasiFermiPotential" "topGate DisplacementCurrent" "topGate eCurrent" "topGate hCurrent" "topGate TotalCurrent"
    "topGate Charge" "drain OuterVoltage" "drain InnerVoltage" "drain QuasiFermiPotential" "drain DisplacementCurrent"
    "drain eCurrent" "drain hCurrent" "drain TotalCurrent" "drain Charge" "bottomGate OuterVoltage"
    "bottomGate InnerVoltage" "bottomGate QuasiFermiPotential" "bottomGate DisplacementCurrent" "bottomGate eCurrent" "bottomGate hCurrent"
    "bottomGate TotalCurrent" "bottomGate Charge" ]
  functions = [
    Time
    OuterVoltage InnerVoltage QuasiFermiPotential DisplacementCurrent eCurrent
    hCurrent TotalCurrent Charge OuterVoltage InnerVoltage
    QuasiFermiPotential DisplacementCurrent eCurrent hCurrent TotalCurrent
    Charge OuterVoltage InnerVoltage QuasiFermiPotential DisplacementCurrent
    eCurrent hCurrent TotalCurrent Charge OuterVoltage
    InnerVoltage QuasiFermiPotential DisplacementCurrent eCurrent hCurrent
    TotalCurrent Charge ]
}

Data {
      1.00000000000000E-02
      0.00000000000000E+00   0.00000000000000E+00   0.00000000000000E+00   0.00000000000000E+00  -1.67181082747778E-13
     -2.72243990913096E-11  -2.73915801740574E-11  -1.12044259845097E-17   4.00000000000000E-03   4.00000000000000E-03
      0.00000000000000E+00   0.00000000000000E+00   0.00000000000000E+00   0.00000000000000E+00   0.00000000000000E+00
     -6.62816702850758E-17   2.10000000000000E-01   2.10000000000000E-01   0.00000000000000E+00   0.00000000000000E+00
      2.73857314828907E-11   5.84869116668116E-15   2.73915801740573E-11   1.48062620494347E-17   2.40000000000000E-01
      2.40000000000000E-01   0.00000000000000E+00   0.00000000000000E+00   0.00000000000000E+00   0.00000000000000E+00
      0.00000000000000E+00   6.26798342201507E-17
      2.00000000000000E-02
      0.00000000000000E+00   0.00000000000000E+00   0.00000000000000E+00   0.00000000000000E+00  -1.68401107600320E-13
     -2.48602269347246E-11  -2.50286280423249E-11  -1.12485353307901E-17   8.00000000000000E-03   8.00000000000000E-03
      0.00000000000000E+00   0.00000000000000E+00   0.00000000000000E+00   0.00000000000000E+00   0.00000000000000E+00
     -6.51452384135566E-17   2.10000000000000E-01   2.10000000000000E-01   0.00000000000000E+00   0.00000000000000E+00
      2.50228083744536E-11   5.81966787134295E-15   2.50286280423249E-11   1.47632959723779E-17   2.40000000000000E-01
      2.40000000000000E-01   0.00000000000000E+00   0.00000000000000E+00   0.00000000000000E+00   0.00000000000000E+00
      0.00000000000000E+00   6.16304777719687E-17
      3.00000000000000E-02
      0.00000000000000E+00   0.00000000000000E+00   0.00000000000000E+00   0.00000000000000E+00  -1.69623943530833E-13
     -2.26814163179523E-11  -2.28510402614831E-11  -1.12926167873408E-17   1.20000000000000E-02   1.20000000000000E-02
      0.00000000000000E+00   0.00000000000000E+00   0.00000000000000E+00   0.00000000000000E+00   0.00000000000000E+00
     -6.40088175166712E-17   2.10000000000000E-01   2.10000000000000E-01   0.00000000000000E+00   0.00000000000000E+00
      2.28452496019414E-11   5.79065954170615E-15   2.28510402614832E-11   1.47203239433636E-17   2.40000000000000E-01
      2.40000000000000E-01   0.00000000000000E+00   0.00000000000000E+00   0.00000000000000E+00   0.00000000000000E+00
      0.00000000000000E+00   6.05811103606484E-17
      4.00000000000000E-02
      0.00000000000000E+00   0.00000000000000E+00   0.00000000000000E+00   0.00000000000000E+00  -1.70849570883255E-13
     -2.06753184223817E-11  -2.08461679932650E-11  -1.13366709303283E-17   1.60000000000000E-02   1.60000000000000E-02
      0.00000000000000E+00   0.00000000000000E+00   0.00000000000000E+00   0.00000000000000E+00   0.00000000000000E+00
     -6.28724072501709E-17   2.10000000000000E-01   2.10000000000000E-01   0.00000000000000E+00   0.00000000000000E+00
      2.08404063260389E-11   5.76166722600603E-15   2.08461679932649E-11   1.46773458510300E-17   2.40000000000000E-01
      2.40000000000000E-01   0.00000000000000E+00   0.00000000000000E+00   0.00000000000000E+00   0.00000000000000E+00
      0.00000000000000E+00   5.95317323294692E-17
      5.00000000000000E-02
      0.00000000000000E+00   0.00000000000000E+00   0.00000000000000E+00   0.00000000000000E+00  -1.72077969182038E-13
     -1.88299999660251E-11  -1.90020779352071E-11  -1.13806983227347E-17   2.00000000000000E-02   2.00000000000000E-02
      0.00000000000000E+00   0.00000000000000E+00   0.00000000000000E+00   0.00000000000000E+00   0.00000000000000E+00
     -6.17360072757464E-17   2.10000000000000E-01   2.10000000000000E-01   0.00000000000000E+00   0.00000000000000E+00
      1.89963452433370E-11   5.73269187008350E-15   1.90020779352071E-11   1.46343615826284E-17   2.40000000000000E-01
      2.40000000000000E-01   0.00000000000000E+00   0.00000000000000E+00   0.00000000000000E+00   0.00000000000000E+00
      0.00000000000000E+00   5.84823440158526E-17
      6.00000000000000E-02
      0.00000000000000E+00   0.00000000000000E+00   0.00000000000000E+00   0.00000000000000E+00  -1.73309117235785E-13
     -1.71342125817472E-11  -1.73075216989830E-11  -1.14246995146756E-17   2.40000000000000E-02   2.40000000000000E-02
      0.00000000000000E+00   0.00000000000000E+00   0.00000000000000E+00   0.00000000000000E+00   0.00000000000000E+00
     -6.05996172608161E-17   2.10000000000000E-01   2.10000000000000E-01   0.00000000000000E+00   0.00000000000000E+00
      1.73018179646329E-11   5.70373435015243E-15   1.73075216989830E-11   1.45913710239258E-17   2.40000000000000E-01
      2.40000000000000E-01   0.00000000000000E+00   0.00000000000000E+00   0.00000000000000E+00   0.00000000000000E+00
      0.00000000000000E+00   5.74329457515659E-17
      7.00000000000000E-02
      0.00000000000000E+00   0.00000000000000E+00   0.00000000000000E+00   0.00000000000000E+00  -1.74542993231197E-13
     -1.55773629728234E-11  -1.57519059660546E-11  -1.14686750437109E-17   2.80000000000000E-02   2.80000000000000E-02
      0.00000000000000E+00   0.00000000000000E+00   0.00000000000000E+00   0.00000000000000E+00   0.00000000000000E+00
     -5.94632368783215E-17   2.10000000000000E-01   2.10000000000000E-01   0.00000000000000E+00   0.00000000000000E+00
      1.57462311704406E-11   5.67479561404177E-15   1.57519059660547E-11   1.45483740591105E-17   2.40000000000000E-01
      2.40000000000000E-01   0.00000000000000E+00   0.00000000000000E+00   0.00000000000000E+00   0.00000000000000E+00
      0.00000000000000E+00   5.63835378629218E-17
      8.00000000000000E-02
      0.00000000000000E+00   0.00000000000000E+00   0.00000000000000E+00   0.00000000000000E+00  -1.75779574818087E-13
     -1.41494838473746E-11  -1.43252634221926E-11  -1.15126254351473E-17   3.20000000000000E-02   3.20000000000000E-02
      0.00000000000000E+00   0.00000000000000E+00   0.00000000000000E+00   0.00000000000000E+00   0.00000000000000E+00
     -5.83268658065263E-17   2.10000000000000E-01   2.10000000000000E-01   0.00000000000000E+00   0.00000000000000E+00
      1.43196175458165E-11   5.64587637614242E-15   1.43252634221926E-11   1.45053705707006E-17   2.40000000000000E-01
      2.40000000000000E-01   0.00000000000000E+00   0.00000000000000E+00   0.00000000000000E+00   0.00000000000000E+00
      0.00000000000000E+00   5.53341206709729E-17
      9.00000000000000E-02
      0.00000000000000E+00   0.00000000000000E+00   0.00000000000000E+00   0.00000000000000E+00  -1.77018839186484E-13
     -1.28412056343067E-11  -1.30182244734932E-11  -1.15565512023339E-17   3.60000000000000E-02   3.60000000000000E-02
      0.00000000000000E+00   0.00000000000000E+00   0.00000000000000E+00   0.00000000000000E+00   0.00000000000000E+00
     -5.71905037288217E-17   2.10000000000000E-01   2.10000000000000E-01   0.00000000000000E+00   0.00000000000000E+00
      1.30126074960480E-11   5.61697744521822E-15   1.30182244734932E-11   1.44623604394542E-17   2.40000000000000E-01
      2.40000000000000E-01   0.00000000000000E+00   0.00000000000000E+00   0.00000000000000E+00   0.00000000000000E+00
      0.00000000000000E+00   5.42846944917015E-17
      1.00000000000000E-01
      0.00000000000000E+00   0.00000000000000E+00   0.00000000000000E+00   0.00000000000000E+00  -1.78260763136407E-13
     -1.16437289805895E-11  -1.18219897437259E-11  -1.16004528469506E-17   4.00000000000000E-02   4.00000000000000E-02
      0.00000000000000E+00   0.00000000000000E+00   0.00000000000000E+00   0.00000000000000E+00   0.00000000000000E+00
     -5.60541503335360E-17   2.10000000000000E-01   2.10000000000000E-01   0.00000000000000E+00   0.00000000000000E+00
      1.18164016441707E-11   5.58809955524346E-15   1.18219897437259E-11   1.44193435442815E-17   2.40000000000000E-01
      2.40000000000000E-01   0.00000000000000E+00   0.00000000000000E+00   0.00000000000000E+00   0.00000000000000E+00
      0.00000000000000E+00   5.32352596362051E-17
      1.10000000000000E-01
      0.00000000000000E+00   0.00000000000000E+00   0.00000000000000E+00   0.00000000000000E+00  -1.79505323140944E-13
     -1.05487980309017E-11  -1.07283033540426E-11  -1.16443308592891E-17   4.40000000000000E-02   4.40000000000000E-02
      0.00000000000000E+00   0.00000000000000E+00   0.00000000000000E+00   0.00000000000000E+00   0.00000000000000E+00
     -5.49178053137486E-17   2.10000000000000E-01   2.10000000000000E-01   0.00000000000000E+00   0.00000000000000E+00
      1.07227441106617E-11   5.55924338095701E-15   1.07283033540426E-11   1.43763197621592E-17   2.40000000000000E-01
      2.40000000000000E-01   0.00000000000000E+00   0.00000000000000E+00   0.00000000000000E+00   0.00000000000000E+00
      0.00000000000000E+00   5.21858164108785E-17
      1.20000000000000E-01
      0.00000000000000E+00   0.00000000000000E+00   0.00000000000000E+00   0.00000000000000E+00  -1.80752495403410E-13
     -9.54867448920892E-12  -9.72942698461233E-12  -1.16881857185278E-17   4.80000000000000E-02   4.80000000000000E-02
      0.00000000000000E+00   0.00000000000000E+00   0.00000000000000E+00   0.00000000000000E+00   0.00000000000000E+00
     -5.37814683671086E-17   2.10000000000000E-01   2.10000000000000E-01   0.00000000000000E+00   0.00000000000000E+00
      9.72389657500955E-12   5.53040960278763E-15   9.72942698461233E-12   1.43332889680456E-17   2.40000000000000E-01
      2.40000000000000E-01   0.00000000000000E+00   0.00000000000000E+00   0.00000000000000E+00   0.00000000000000E+00
      0.00000000000000E+00   5.11363651175908E-17
      1.30000000000000E-01
      0.00000000000000E+00   0.00000000000000E+00   0.00000000000000E+00   0.00000000000000E+00  -1.82002255908953E-13
     -8.63611246112906E-12  -8.81811471703802E-12  -1.17320178929995E-17   5.20000000000000E-02   5.20000000000000E-02
      0.00000000000000E+00   0.00000000000000E+00   0.00000000000000E+00   0.00000000000000E+00   0.00000000000000E+00
     -5.26451391956570E-17   2.10000000000000E-01   2.10000000000000E-01   0.00000000000000E+00   0.00000000000000E+00
      8.81261311819390E-12   5.50159884413021E-15   8.81811471703803E-12   1.42902510347968E-17   2.40000000000000E-01
      2.40000000000000E-01   0.00000000000000E+00   0.00000000000000E+00   0.00000000000000E+00   0.00000000000000E+00
      0.00000000000000E+00   5.00869060538596E-17
      1.40000000000000E-01
      0.00000000000000E+00   0.00000000000000E+00   0.00000000000000E+00   0.00000000000000E+00  -1.83254580471175E-13
     -7.80433407564961E-12  -7.98758865612079E-12  -1.17758278404524E-17   5.60000000000000E-02   5.60000000000000E-02
      0.00000000000000E+00   0.00000000000000E+00   0.00000000000000E+00   0.00000000000000E+00   0.00000000000000E+00
     -5.15088175056532E-17   2.10000000000000E-01   2.10000000000000E-01   0.00000000000000E+00   0.00000000000000E+00
      7.98211584441468E-12   5.47281170610697E-15   7.98758865612079E-12   1.42472058330846E-17   2.40000000000000E-01
      2.40000000000000E-01   0.00000000000000E+00   0.00000000000000E+00   0.00000000000000E+00   0.00000000000000E+00
      0.00000000000000E+00   4.90374395130210E-17
      1.50000000000000E-01
      0.00000000000000E+00   0.00000000000000E+00   0.00000000000000E+00   0.00000000000000E+00  -1.84509444774319E-13
     -7.04700588371010E-12  -7.23151532848442E-12  -1.18196160083054E-17   6.00000000000000E-02   6.00000000000000E-02
      0.00000000000000E+00   0.00000000000000E+00   0.00000000000000E+00   0.00000000000000E+00   0.00000000000000E+00
     -5.03725030074052E-17   2.10000000000000E-01   2.10000000000000E-01   0.00000000000000E+00   0.00000000000000E+00
      7.22607127970203E-12   5.44404878240018E-15   7.23151532848443E-12   1.42041532313138E-17   2.40000000000000E-01
      2.40000000000000E-01   0.00000000000000E+00   0.00000000000000E+00   0.00000000000000E+00   0.00000000000000E+00
      0.00000000000000E+00   4.79879657843968E-17
      1.60000000000000E-01
      0.00000000000000E+00   0.00000000000000E+00   0.00000000000000E+00   0.00000000000000E+00  -1.85766824411220E-13
     -6.35821603054665E-12  -6.54398285495787E-12  -1.18633828338962E-17   6.40000000000000E-02   6.40000000000000E-02
      0.00000000000000E+00   0.00000000000000E+00   0.00000000000000E+00   0.00000000000000E+00   0.00000000000000E+00
     -4.92361954151029E-17   2.10000000000000E-01   2.10000000000000E-01   0.00000000000000E+00   0.00000000000000E+00
      6.53856754431689E-12   5.41531064097957E-15   6.54398285495787E-12   1.41610930955412E-17   2.40000000000000E-01
      2.40000000000000E-01   0.00000000000000E+00   0.00000000000000E+00   0.00000000000000E+00   0.00000000000000E+00
      0.00000000000000E+00   4.69384851534579E-17
      1.70000000000000E-01
      0.00000000000000E+00   0.00000000000000E+00   0.00000000000000E+00   0.00000000000000E+00  -1.87026694917603E-13
     -5.73245219800599E-12  -5.91947889292359E-12  -1.19071287447243E-17   6.80000000000000E-02   6.80000000000000E-02
      0.00000000000000E+00   0.00000000000000E+00   0.00000000000000E+00   0.00000000000000E+00   0.00000000000000E+00
     -4.80998944466548E-17   2.10000000000000E-01   2.10000000000000E-01   0.00000000000000E+00   0.00000000000000E+00
      5.91409229511760E-12   5.38659780598851E-15   5.91947889292359E-12   1.41180252893942E-17   2.40000000000000E-01
      2.40000000000000E-01   0.00000000000000E+00   0.00000000000000E+00   0.00000000000000E+00   0.00000000000000E+00
      0.00000000000000E+00   4.58889979019849E-17
      1.80000000000000E-01
      0.00000000000000E+00   0.00000000000000E+00   0.00000000000000E+00   0.00000000000000E+00  -1.88289031803040E-13
     -5.16458031234841E-12  -5.35286934415145E-12  -1.19508541586874E-17   7.20000000000000E-02   7.20000000000000E-02
      0.00000000000000E+00   0.00000000000000E+00   0.00000000000000E+00   0.00000000000000E+00   0.00000000000000E+00
     -4.69635998235285E-17   2.10000000000000E-01   2.10000000000000E-01   0.00000000000000E+00   0.00000000000000E+00
      5.34751143332922E-12   5.35791082223429E-15   5.35286934415145E-12   1.40749496739897E-17   2.40000000000000E-01
      2.40000000000000E-01   0.00000000000000E+00   0.00000000000000E+00   0.00000000000000E+00   0.00000000000000E+00
      0.00000000000000E+00   4.48395043082262E-17
      1.90000000000000E-01
      0.00000000000000E+00   0.00000000000000E+00   0.00000000000000E+00   0.00000000000000E+00  -1.89553810578642E-13
     -4.64982401202188E-12  -4.83937782260052E-12  -1.19945594843122E-17   7.60000000000000E-02   7.60000000000000E-02
      0.00000000000000E+00   0.00000000000000E+00   0.00000000000000E+00   0.00000000000000E+00   0.00000000000000E+00
     -4.58273112705929E-17   2.10000000000000E-01   2.10000000000000E-01   0.00000000000000E+00   0.00000000000000E+00
      4.83404857241099E-12   5.32925018952741E-15   4.83937782260052E-12   1.40318661078530E-17   2.40000000000000E-01
      2.40000000000000E-01   0.00000000000000E+00   0.00000000000000E+00   0.00000000000000E+00   0.00000000000000E+00
      0.00000000000000E+00   4.37900046470520E-17
      2.00000000000000E-01
      0.00000000000000E+00   0.00000000000000E+00   0.00000000000000E+00   0.00000000000000E+00  -1.90821006782193E-13
     -4.18374486962003E-12  -4.37456587640222E-12  -1.20382451209794E-17   8.00000000000000E-02   8.00000000000000E-02
      0.00000000000000E+00   0.00000000000000E+00   0.00000000000000E+00   0.00000000000000E+00   0.00000000000000E+00
     -4.46910285159644E-17   2.10000000000000E-01   2.10000000000000E-01   0.00000000000000E+00   0.00000000000000E+00
      4.36926525997655E-12   5.30061642566825E-15   4.37456587640222E-12   1.39887744468364E-17   2.40000000000000E-01
      2.40000000000000E-01   0.00000000000000E+00   0.00000000000000E+00   0.00000000000000E+00   0.00000000000000E+00
      0.00000000000000E+00   4.27404991901075E-17
      2.10000000000000E-01
      0.00000000000000E+00   0.00000000000000E+00   0.00000000000000E+00   0.00000000000000E+00  -1.92090596000529E-13
     -3.76222336099344E-12  -3.95431395699397E-12  -1.20819114591436E-17   8.40000000000000E-02   8.40000000000000E-02
      0.00000000000000E+00   0.00000000000000E+00   0.00000000000000E+00   0.00000000000000E+00   0.00000000000000E+00
     -4.35547512908555E-17   2.10000000000000E-01   2.10000000000000E-01   0.00000000000000E+00   0.00000000000000E+00
      3.94904194698676E-12   5.27201000720589E-15   3.95431395699397E-12   1.39456745440373E-17   2.40000000000000E-01
      2.40000000000000E-01   0.00000000000000E+00   0.00000000000000E+00   0.00000000000000E+00   0.00000000000000E+00
      0.00000000000000E+00   4.16909882059618E-17
      2.20000000000000E-01
      0.00000000000000E+00   0.00000000000000E+00   0.00000000000000E+00   0.00000000000000E+00  -1.93362553889776E-13
     -3.38144057424244E-12  -3.57480312813222E-12  -1.21255588805468E-17   8.80000000000000E-02   8.80000000000000E-02
      0.00000000000000E+00   0.00000000000000E+00   0.00000000000000E+00   0.00000000000000E+00   0.00000000000000E+00
     -4.24184793294252E-17   2.10000000000000E-01   2.10000000000000E-01   0.00000000000000E+00   0.00000000000000E+00
      3.56955969671087E-12   5.24343142134733E-15   3.57480312813222E-12   1.39025662497162E-17   2.40000000000000E-01
      2.40000000000000E-01   0.00000000000000E+00   0.00000000000000E+00   0.00000000000000E+00   0.00000000000000E+00
      0.00000000000000E+00   4.06414719602559E-17
      2.30000000000000E-01
      0.00000000000000E+00   0.00000000000000E+00   0.00000000000000E+00   0.00000000000000E+00  -1.94636856193434E-13
     -3.03786065018617E-12  -3.23249750637960E-12  -1.21691877584282E-17   9.20000000000000E-02   9.20000000000000E-02
      0.00000000000000E+00   0.00000000000000E+00   0.00000000000000E+00   0.00000000000000E+00   0.00000000000000E+00
     -4.12822123686328E-17   2.10000000000000E-01   2.10000000000000E-01   0.00000000000000E+00   0.00000000000000E+00
      3.22728262523941E-12   5.21488114019073E-15   3.23249750637960E-12   1.38594494112137E-17   2.40000000000000E-01
      2.40000000000000E-01   0.00000000000000E+00   0.00000000000000E+00   0.00000000000000E+00   0.00000000000000E+00
      0.00000000000000E+00   3.95919507158473E-17
      2.40000000000000E-01
      0.00000000000000E+00   0.00000000000000E+00   0.00000000000000E+00   0.00000000000000E+00  -1.95913478758480E-13
     -2.72821394550675E-12  -2.92412742426523E-12  -1.22127984577271E-17   9.60000000000000E-02   9.60000000000000E-02
      0.00000000000000E+00   0.00000000000000E+00   0.00000000000000E+00   0.00000000000000E+00   0.00000000000000E+00
     -4.01459501480934E-17   2.10000000000000E-01   2.10000000000000E-01   0.00000000000000E+00   0.00000000000000E+00
      2.91894106463911E-12   5.18635962611575E-15   2.92412742426523E-12   1.38163238728671E-17   2.40000000000000E-01
      2.40000000000000E-01   0.00000000000000E+00   0.00000000000000E+00   0.00000000000000E+00   0.00000000000000E+00
      0.00000000000000E+00   3.85424247329533E-17
      2.50000000000000E-01
      0.00000000000000E+00   0.00000000000000E+00   0.00000000000000E+00   0.00000000000000E+00  -1.97192397549877E-13
     -2.44948090897008E-12  -2.64667330651995E-12  -1.22563913352819E-17   1.00000000000000E-01   1.00000000000000E-01
      0.00000000000000E+00   0.00000000000000E+00   0.00000000000000E+00   0.00000000000000E+00   0.00000000000000E+00
     -3.90096924099353E-17   2.10000000000000E-01   2.10000000000000E-01   0.00000000000000E+00   0.00000000000000E+00
      2.64151543916977E-12   5.15786735018728E-15   2.64667330651995E-12   1.37731894759253E-17   2.40000000000000E-01
      2.40000000000000E-01   0.00000000000000E+00   0.00000000000000E+00   0.00000000000000E+00   0.00000000000000E+00
      0.00000000000000E+00   3.74928942692918E-17
      2.60000000000000E-01
      0.00000000000000E+00   0.00000000000000E+00   0.00000000000000E+00   0.00000000000000E+00  -1.98473588663467E-13
     -2.19887666043681E-12  -2.39735024910027E-12  -1.22999667400241E-17   1.04000000000000E-01   1.04000000000000E-01
      0.00000000000000E+00   0.00000000000000E+00   0.00000000000000E+00   0.00000000000000E+00   0.00000000000000E+00
     -3.78734388986603E-17   2.10000000000000E-01   2.10000000000000E-01   0.00000000000000E+00   0.00000000000000E+00
      2.39222084433604E-12   5.12940476423395E-15   2.39735024910027E-12   1.37300460584640E-17   2.40000000000000E-01
      2.40000000000000E-01   0.00000000000000E+00   0.00000000000000E+00   0.00000000000000E+00   0.00000000000000E+00
      0.00000000000000E+00   3.64433595802204E-17
      2.70000000000000E-01
      0.00000000000000E+00   0.00000000000000E+00   0.00000000000000E+00   0.00000000000000E+00  -1.99757028337393E-13
     -1.97383626192488E-12  -2.17359329026227E-12  -1.23435250131670E-17   1.08000000000000E-01   1.08000000000000E-01
      0.00000000000000E+00   0.00000000000000E+00   0.00000000000000E+00   0.00000000000000E+00   0.00000000000000E+00
     -3.67371893610049E-17   2.10000000000000E-01   2.10000000000000E-01   0.00000000000000E+00   0.00000000000000E+00
      2.16849231793390E-12   5.10097232837006E-15   2.17359329026227E-12   1.36868934552984E-17   2.40000000000000E-01
      2.40000000000000E-01   0.00000000000000E+00   0.00000000000000E+00   0.00000000000000E+00   0.00000000000000E+00
      0.00000000000000E+00   3.53938209188735E-17
      2.80000000000000E-01
      0.00000000000000E+00   0.00000000000000E+00   0.00000000000000E+00   0.00000000000000E+00  -2.01042692962310E-13
     -1.77200066919911E-12  -1.97304336216142E-12  -1.23870664883901E-17   1.12000000000000E-01   1.12000000000000E-01
      0.00000000000000E+00   0.00000000000000E+00   0.00000000000000E+00   0.00000000000000E+00   0.00000000000000E+00
     -3.56009435458037E-17   2.10000000000000E-01   2.10000000000000E-01   0.00000000000000E+00   0.00000000000000E+00
      1.96797079166950E-12   5.07257049192126E-15   1.97304336216142E-12   1.36437314978955E-17   2.40000000000000E-01
      2.40000000000000E-01   0.00000000000000E+00   0.00000000000000E+00   0.00000000000000E+00   0.00000000000000E+00
      0.00000000000000E+00   3.43442785362983E-17
      2.90000000000000E-01
      0.00000000000000E+00   0.00000000000000E+00   0.00000000000000E+00   0.00000000000000E+00  -2.02330559090395E-13
     -1.59120335200775E-12  -1.79353391109814E-12  -1.24305914920189E-17   1.16000000000000E-01   1.16000000000000E-01
      0.00000000000000E+00   0.00000000000000E+00   0.00000000000000E+00   0.00000000000000E+00   0.00000000000000E+00
     -3.44647012038547E-17   2.10000000000000E-01   2.10000000000000E-01   0.00000000000000E+00   0.00000000000000E+00
      1.78848971138591E-12   5.04419971223244E-15   1.79353391109814E-12   1.36005600142849E-17   2.40000000000000E-01
      2.40000000000000E-01   0.00000000000000E+00   0.00000000000000E+00   0.00000000000000E+00   0.00000000000000E+00
      0.00000000000000E+00   3.32947326815887E-17
      3.00000000000000E-01
      0.00000000000000E+00   0.00000000000000E+00   0.00000000000000E+00   0.00000000000000E+00  -2.03620603443245E-13
     -1.42945757043464E-12  -1.63307817387789E-12  -1.24741003432004E-17   1.20000000000000E-01   1.20000000000000E-01
      0.00000000000000E+00   0.00000000000000E+00   0.00000000000000E+00   0.00000000000000E+00   0.00000000000000E+00
     -3.33284620877852E-17   2.10000000000000E-01   2.10000000000000E-01   0.00000000000000E+00   0.00000000000000E+00
      1.62806231343251E-12   5.01586044537749E-15   1.63307817387789E-12   1.35573788289681E-17   2.40000000000000E-01
      2.40000000000000E-01   0.00000000000000E+00   0.00000000000000E+00   0.00000000000000E+00   0.00000000000000E+00
      0.00000000000000E+00   3.22451836020175E-17
      3.10000000000000E-01
      0.00000000000000E+00   0.00000000000000E+00   0.00000000000000E+00   0.00000000000000E+00  -2.04912802918896E-13
     -1.28494429447467E-12  -1.48985709739357E-12  -1.25175933540735E-17   1.24000000000000E-01   1.24000000000000E-01
      0.00000000000000E+00   0.00000000000000E+00   0.00000000000000E+00   0.00000000000000E+00   0.00000000000000E+00
     -3.21922259519206E-17   2.10000000000000E-01   2.10000000000000E-01   0.00000000000000E+00   0.00000000000000E+00
      1.48486954425571E-12   4.98755313785909E-15   1.48985709739357E-12   1.35141877628260E-17   2.40000000000000E-01
      2.40000000000000E-01   0.00000000000000E+00   0.00000000000000E+00   0.00000000000000E+00   0.00000000000000E+00
      0.00000000000000E+00   3.11956315431681E-17
      3.20000000000000E-01
      0.00000000000000E+00   0.00000000000000E+00   0.00000000000000E+00   0.00000000000000E+00  -2.06207134597944E-13
     -1.15600075354357E-12  -1.36220788814152E-12  -1.25610708299365E-17   1.28000000000000E-01   1.28000000000000E-01
      0.00000000000000E+00   0.00000000000000E+00   0.00000000000000E+00   0.00000000000000E+00   0.00000000000000E+00
     -3.10559925521531E-17   2.10000000000000E-01   2.10000000000000E-01   0.00000000000000E+00   0.00000000000000E+00
      1.35724860988364E-12   4.95927825787737E-15   1.36220788814152E-12   1.34709866330252E-17   2.40000000000000E-01
      2.40000000000000E-01   0.00000000000000E+00   0.00000000000000E+00   0.00000000000000E+00   0.00000000000000E+00
      0.00000000000000E+00   3.01460767490644E-17
      3.30000000000000E-01
      0.00000000000000E+00   0.00000000000000E+00   0.00000000000000E+00   0.00000000000000E+00  -2.07503575748779E-13
     -1.04110960212701E-12  -1.24861317787578E-12  -1.26045330694091E-17   1.32000000000000E-01   1.32000000000000E-01
      0.00000000000000E+00   0.00000000000000E+00   0.00000000000000E+00   0.00000000000000E+00   0.00000000000000E+00
     -2.99197616458124E-17   2.10000000000000E-01   2.10000000000000E-01   0.00000000000000E+00   0.00000000000000E+00
      1.24368214162166E-12   4.93103625412868E-15   1.24861317787578E-12   1.34277752529222E-17   2.40000000000000E-01
      2.40000000000000E-01   0.00000000000000E+00   0.00000000000000E+00   0.00000000000000E+00   0.00000000000000E+00
      0.00000000000000E+00   2.90965194622994E-17
      3.40000000000000E-01
      0.00000000000000E+00   0.00000000000000E+00   0.00000000000000E+00   0.00000000000000E+00  -2.08802103832188E-13
     -9.38888687737162E-13  -1.14769079156935E-12  -1.26479803645914E-17   1.36000000000000E-01   1.36000000000000E-01
      0.00000000000000E+00   0.00000000000000E+00   0.00000000000000E+00   0.00000000000000E+00   0.00000000000000E+00
     -2.87835329915374E-17   2.10000000000000E-01   2.10000000000000E-01   0.00000000000000E+00   0.00000000000000E+00
      1.14278796397643E-12   4.90282759292268E-15   1.14769079156935E-12   1.33845534319658E-17   2.40000000000000E-01
      2.40000000000000E-01   0.00000000000000E+00   0.00000000000000E+00   0.00000000000000E+00   0.00000000000000E+00
      0.00000000000000E+00   2.80469599241629E-17
      3.50000000000000E-01
      0.00000000000000E+00   0.00000000000000E+00   0.00000000000000E+00   0.00000000000000E+00  -2.10102696505427E-13
     -8.48081406815014E-13  -1.05818410332044E-12  -1.26914130012181E-17   1.40000000000000E-01   1.40000000000000E-01
      0.00000000000000E+00   0.00000000000000E+00   0.00000000000000E+00   0.00000000000000E+00   0.00000000000000E+00
     -2.76473063491484E-17   2.10000000000000E-01   2.10000000000000E-01   0.00000000000000E+00   0.00000000000000E+00
      1.05330945058321E-12   4.87465273722874E-15   1.05818410332044E-12   1.33413209755977E-17   2.40000000000000E-01
      2.40000000000000E-01   0.00000000000000E+00   0.00000000000000E+00   0.00000000000000E+00   0.00000000000000E+00
      0.00000000000000E+00   2.69973983747689E-17
      3.60000000000000E-01
      0.00000000000000E+00   0.00000000000000E+00   0.00000000000000E+00   0.00000000000000E+00  -2.11405331625328E-13
     -7.67547634257965E-13  -9.78952965883293E-13  -1.27348312588099E-17   1.44000000000000E-01   1.44000000000000E-01
      0.00000000000000E+00   0.00000000000000E+00   0.00000000000000E+00   0.00000000000000E+00   0.00000000000000E+00
     -2.65110814795214E-17   2.10000000000000E-01   2.10000000000000E-01   0.00000000000000E+00   0.00000000000000E+00
      9.74106453727526E-13   4.84651215576611E-15   9.78952965883292E-13   1.32980776851508E-17   2.40000000000000E-01
      2.40000000000000E-01   0.00000000000000E+00   0.00000000000000E+00   0.00000000000000E+00   0.00000000000000E+00
      0.00000000000000E+00   2.59478350531805E-17
      3.70000000000000E-01
      0.00000000000000E+00   0.00000000000000E+00   0.00000000000000E+00   0.00000000000000E+00  -2.12709987251281E-13