DF-ISE text

Info {
  version   = 1.0
  type      = xyplot
  datasets  = [
    "time"
    "source OuterVoltage" "source InnerVoltage" "source QuasiFermiPotential" "source DisplacementCurrent" "source eCurrent"
    "source hCurrent" "source TotalCurrent" "source Charge" "topGate OuterVoltage" "topGate InnerVoltage"
    "topGate QuasiFermiPotential" "topGate DisplacementCurrent" "topGate eCurrent" "topGate hCurrent" "topGate TotalCurrent"
    "topGate Charge" "drain OuterVoltage" "drain InnerVoltage" "drain QuasiFermiPotential" "drain DisplacementCurrent"
    "drain eCurrent" "drain hCurrent" "drain TotalCurrent" "drain Charge" "bottomGate OuterVoltage"
    "bottomGate InnerVoltage" "bottomGate QuasiFermiPotential" "bottomGate DisplacementCurrent" "bottomGate eCurrent" "bottomGate hCurrent"
    "bottomGate TotalCurrent" "bottomGate Charge" ]
  functions = [
    Time
    OuterVoltage InnerVoltage QuasiFermiPotential DisplacementCurrent eCurrent
    hCurrent TotalCurrent Charge OuterVoltage InnerVoltage
    QuasiFermiPotential DisplacementCurrent eCurrent hCurrent TotalCurrent
    Charge OuterVoltage InnerVoltage QuasiFermiPotential DisplacementCurrent
    eCurrent hCurrent TotalCurrent Charge OuterVoltage
    InnerVoltage QuasiFermiPotential DisplacementCurrent eCurrent hCurrent
    TotalCurrent Charge ]
}

Data {
      1.00000000000000E-02
      0.00000000000000E+00   0.00000000000000E+00   0.00000000000000E+00   0.00000000000000E+00  -1.82486676112849E-13
     -2.68741170402424E-11  -2.70566037163552E-11  -1.17539112683834E-17   4.00000000000000E-03   4.00000000000000E-03
      0.00000000000000E+00   0.00000000000000E+00   0.00000000000000E+00   0.00000000000000E+00   0.00000000000000E+00
     -7.90760420822605E-17   1.80000000000000E-01   1.80000000000000E-01   0.00000000000000E+00   0.00000000000000E+00
      2.70515559425663E-11   5.04777378891912E-15   2.70566037163552E-11   1.36221392674258E-17   2.90000000000000E-01
      2.90000000000000E-01   0.00000000000000E+00   0.00000000000000E+00   0.00000000000000E+00   0.00000000000000E+00
      0.00000000000000E+00   7.72078140832181E-17
      2.00000000000000E-02
      0.00000000000000E+00   0.00000000000000E+00   0.00000000000000E+00   0.00000000000000E+00  -1.83741460280968E-13
     -2.46463274754736E-11  -2.48300689357546E-11  -1.17977102865415E-17   8.00000000000000E-03   8.00000000000000E-03
      0.00000000000000E+00   0.00000000000000E+00   0.00000000000000E+00   0.00000000000000E+00   0.00000000000000E+00
     -7.79396600340284E-17   1.80000000000000E-01   1.80000000000000E-01   0.00000000000000E+00   0.00000000000000E+00
      2.48250493410454E-11   5.01959470917906E-15   2.48300689357546E-11   1.35789624441058E-17   2.90000000000000E-01
      2.90000000000000E-01   0.00000000000000E+00   0.00000000000000E+00   0.00000000000000E+00   0.00000000000000E+00
      0.00000000000000E+00   7.61584078764641E-17
      3.00000000000000E-02
      0.00000000000000E+00   0.00000000000000E+00   0.00000000000000E+00   0.00000000000000E+00  -1.84998590066223E-13
     -2.25941039695089E-11  -2.27791025595752E-11  -1.18414877440165E-17   1.20000000000000E-02   1.20000000000000E-02
      0.00000000000000E+00   0.00000000000000E+00   0.00000000000000E+00   0.00000000000000E+00   0.00000000000000E+00
     -7.68032838934863E-17   1.80000000000000E-01   1.80000000000000E-01   0.00000000000000E+00   0.00000000000000E+00
      2.27741111068190E-11   4.99145275612755E-15   2.27791025595752E-11   1.35357758693808E-17   2.90000000000000E-01
      2.90000000000000E-01   0.00000000000000E+00   0.00000000000000E+00   0.00000000000000E+00   0.00000000000000E+00
      0.00000000000000E+00   7.51089957681221E-17
      4.00000000000000E-02
      0.00000000000000E+00   0.00000000000000E+00   0.00000000000000E+00   0.00000000000000E+00  -1.86258057187831E-13
     -2.07052060784718E-11  -2.08914641356596E-11  -1.18852440732519E-17   1.60000000000000E-02   1.60000000000000E-02
      0.00000000000000E+00   0.00000000000000E+00   0.00000000000000E+00   0.00000000000000E+00   0.00000000000000E+00
     -7.56669133521479E-17   1.80000000000000E-01   1.80000000000000E-01   0.00000000000000E+00   0.00000000000000E+00
      2.08865007876548E-11   4.96334800484105E-15   2.08914641356596E-11   1.34925793592168E-17   2.90000000000000E-01
      2.90000000000000E-01   0.00000000000000E+00   0.00000000000000E+00   0.00000000000000E+00   0.00000000000000E+00
      0.00000000000000E+00   7.40595780661830E-17
      5.00000000000000E-02
      0.00000000000000E+00   0.00000000000000E+00   0.00000000000000E+00   0.00000000000000E+00  -1.87519851894066E-13
     -1.89681059664859E-11  -1.91556258183800E-11  -1.19289796969686E-17   2.00000000000000E-02   2.00000000000000E-02
      0.00000000000000E+00   0.00000000000000E+00   0.00000000000000E+00   0.00000000000000E+00   0.00000000000000E+00
     -7.45305481046454E-17   1.80000000000000E-01   1.80000000000000E-01   0.00000000000000E+00   0.00000000000000E+00
      1.91506905378641E-11   4.93528051586205E-15   1.91556258183800E-11   1.34493727260531E-17   2.90000000000000E-01
      2.90000000000000E-01   0.00000000000000E+00   0.00000000000000E+00   0.00000000000000E+00   0.00000000000000E+00
      0.00000000000000E+00   7.30101550755608E-17
      6.00000000000000E-02
      0.00000000000000E+00   0.00000000000000E+00   0.00000000000000E+00   0.00000000000000E+00  -1.88783963116242E-13
     -1.73719568058502E-11  -1.75607407689664E-11  -1.19726950283984E-17   2.40000000000000E-02   2.40000000000000E-02
      0.00000000000000E+00   0.00000000000000E+00   0.00000000000000E+00   0.00000000000000E+00   0.00000000000000E+00
     -7.33941878485532E-17   1.80000000000000E-01   1.80000000000000E-01   0.00000000000000E+00   0.00000000000000E+00
      1.75558335186243E-11   4.90725034212514E-15   1.75607407689664E-11   1.34061557786872E-17   2.90000000000000E-01
      2.90000000000000E-01   0.00000000000000E+00   0.00000000000000E+00   0.00000000000000E+00   0.00000000000000E+00
      0.00000000000000E+00   7.19607270982643E-17
      7.00000000000000E-02
      0.00000000000000E+00   0.00000000000000E+00   0.00000000000000E+00   0.00000000000000E+00  -1.90050378609508E-13
     -1.59065620384805E-11  -1.60966124170900E-11  -1.20163904715125E-17   2.80000000000000E-02   2.80000000000000E-02
      0.00000000000000E+00   0.00000000000000E+00   0.00000000000000E+00   0.00000000000000E+00   0.00000000000000E+00
     -7.22578322842156E-17   1.80000000000000E-01   1.80000000000000E-01   0.00000000000000E+00   0.00000000000000E+00
      1.60917331595702E-11   4.87925751973237E-15   1.60966124170900E-11   1.33629283221605E-17   2.90000000000000E-01
      2.90000000000000E-01   0.00000000000000E+00   0.00000000000000E+00   0.00000000000000E+00   0.00000000000000E+00
      0.00000000000000E+00   7.09112944335676E-17
      8.00000000000000E-02
      0.00000000000000E+00   0.00000000000000E+00   0.00000000000000E+00   0.00000000000000E+00  -1.91319085080691E-13
     -1.45623454960228E-11  -1.47536645811035E-11  -1.20600664212439E-17   3.20000000000000E-02   3.20000000000000E-02
      0.00000000000000E+00   0.00000000000000E+00   0.00000000000000E+00   0.00000000000000E+00   0.00000000000000E+00
     -7.11214811145759E-17   1.80000000000000E-01   1.80000000000000E-01   0.00000000000000E+00   0.00000000000000E+00
      1.47488132790510E-11   4.85130205247250E-15   1.47536645811035E-11   1.33196901576419E-17   2.90000000000000E-01
      2.90000000000000E-01   0.00000000000000E+00   0.00000000000000E+00   0.00000000000000E+00   0.00000000000000E+00
      0.00000000000000E+00   6.98618573781779E-17
      9.00000000000000E-02
      0.00000000000000E+00   0.00000000000000E+00   0.00000000000000E+00   0.00000000000000E+00  -1.92590068305343E-13
     -1.33303223759803E-11  -1.35229124442856E-11  -1.21037232637043E-17   3.60000000000000E-02   3.60000000000000E-02
      0.00000000000000E+00   0.00000000000000E+00   0.00000000000000E+00   0.00000000000000E+00   0.00000000000000E+00
     -6.99851340450078E-17   1.80000000000000E-01   1.80000000000000E-01   0.00000000000000E+00   0.00000000000000E+00
      1.35180890603047E-11   4.82338398089874E-15   1.35229124442856E-11   1.32764410823111E-17   2.90000000000000E-01
      2.90000000000000E-01   0.00000000000000E+00   0.00000000000000E+00   0.00000000000000E+00   0.00000000000000E+00
      0.00000000000000E+00   6.88124162264011E-17
      1.00000000000000E-01
      0.00000000000000E+00   0.00000000000000E+00   0.00000000000000E+00   0.00000000000000E+00  -1.93863313233457E-13
     -1.22020710706288E-11  -1.23959343838622E-11  -1.21473613763957E-17   4.00000000000000E-02   4.00000000000000E-02
      0.00000000000000E+00   0.00000000000000E+00   0.00000000000000E+00   0.00000000000000E+00   0.00000000000000E+00
     -6.88487907831503E-17   1.80000000000000E-01   1.80000000000000E-01   0.00000000000000E+00   0.00000000000000E+00
      1.23911388805616E-11   4.79550330063670E-15   1.23959343838622E-11   1.32331808892413E-17   2.90000000000000E-01
      2.90000000000000E-01   0.00000000000000E+00   0.00000000000000E+00   0.00000000000000E+00   0.00000000000000E+00
      0.00000000000000E+00   6.77629712703047E-17
      1.10000000000000E-01
      0.00000000000000E+00   0.00000000000000E+00   0.00000000000000E+00   0.00000000000000E+00  -1.95138804086452E-13
     -1.11697058457258E-11  -1.13648446498122E-11  -1.21909811284170E-17   4.40000000000000E-02   4.40000000000000E-02
      0.00000000000000E+00   0.00000000000000E+00   0.00000000000000E+00   0.00000000000000E+00   0.00000000000000E+00
     -6.77124510387432E-17   1.80000000000000E-01   1.80000000000000E-01   0.00000000000000E+00   0.00000000000000E+00
      1.13600769897725E-11   4.76766003972912E-15   1.13648446498122E-11   1.31899093672796E-17   2.90000000000000E-01
      2.90000000000000E-01   0.00000000000000E+00   0.00000000000000E+00   0.00000000000000E+00   0.00000000000000E+00
      0.00000000000000E+00   6.67135227998805E-17
      1.20000000000000E-01
      0.00000000000000E+00   0.00000000000000E+00   0.00000000000000E+00   0.00000000000000E+00  -1.96416524445083E-13
     -1.02258503650258E-11  -1.04222668894709E-11  -1.22345828806651E-17   4.80000000000000E-02   4.80000000000000E-02
      0.00000000000000E+00   0.00000000000000E+00   0.00000000000000E+00   0.00000000000000E+00   0.00000000000000E+00
     -6.65761145234654E-17   1.80000000000000E-01   1.80000000000000E-01   0.00000000000000E+00   0.00000000000000E+00
      1.04175270352657E-11   4.73985420518813E-15   1.04222668894709E-11   1.31466263009269E-17   2.90000000000000E-01
      2.90000000000000E-01   0.00000000000000E+00   0.00000000000000E+00   0.00000000000000E+00   0.00000000000000E+00
      0.00000000000000E+00   6.56640711032036E-17
      1.30000000000000E-01
      0.00000000000000E+00   0.00000000000000E+00   0.00000000000000E+00   0.00000000000000E+00  -1.97696457329386E-13
     -9.36361205667285E-12  -9.56130851400224E-12  -1.22781669860316E-17   5.20000000000000E-02   5.20000000000000E-02
      0.00000000000000E+00   0.00000000000000E+00   0.00000000000000E+00   0.00000000000000E+00   0.00000000000000E+00
     -6.54397809507752E-17   1.80000000000000E-01   1.80000000000000E-01   0.00000000000000E+00   0.00000000000000E+00
      9.55659642818622E-12   4.71208581600900E-15   9.56130851400223E-12   1.31033314702157E-17   2.90000000000000E-01
      2.90000000000000E-01   0.00000000000000E+00   0.00000000000000E+00   0.00000000000000E+00   0.00000000000000E+00
      0.00000000000000E+00   6.46146164665911E-17
      1.40000000000000E-01
      0.00000000000000E+00   0.00000000000000E+00   0.00000000000000E+00   0.00000000000000E+00  -1.98978585271513E-13
     -8.57655731669506E-12  -8.77553590196657E-12  -1.23217337895938E-17   5.60000000000000E-02   5.60000000000000E-02
      0.00000000000000E+00   0.00000000000000E+00   0.00000000000000E+00   0.00000000000000E+00   0.00000000000000E+00
     -6.43034500357509E-17   1.80000000000000E-01   1.80000000000000E-01   0.00000000000000E+00   0.00000000000000E+00
      8.77085154706980E-12   4.68435489676381E-15   8.77553590196656E-12   1.30600246505861E-17   2.90000000000000E-01
      2.90000000000000E-01   0.00000000000000E+00   0.00000000000000E+00   0.00000000000000E+00   0.00000000000000E+00
      0.00000000000000E+00   6.35651591747587E-17
      1.50000000000000E-01
      0.00000000000000E+00   0.00000000000000E+00   0.00000000000000E+00   0.00000000000000E+00  -2.00262890381580E-13
     -7.85868754444902E-12  -8.05895043483060E-12  -1.23652836288021E-17   6.00000000000000E-02   6.00000000000000E-02
      0.00000000000000E+00   0.00000000000000E+00   0.00000000000000E+00   0.00000000000000E+00   0.00000000000000E+00
     -6.31671214949346E-17   1.80000000000000E-01   1.80000000000000E-01   0.00000000000000E+00   0.00000000000000E+00
      8.05429377335605E-12   4.65666147454680E-15   8.05895043483060E-12   1.30167056127602E-17   2.90000000000000E-01
      2.90000000000000E-01   0.00000000000000E+00   0.00000000000000E+00   0.00000000000000E+00   0.00000000000000E+00
      0.00000000000000E+00   6.25156995109765E-17
      1.60000000000000E-01
      0.00000000000000E+00   0.00000000000000E+00   0.00000000000000E+00   0.00000000000000E+00  -2.01549354408188E-13
     -7.20441600424660E-12  -7.40596535865479E-12  -1.24088168336614E-17   6.40000000000000E-02   6.40000000000000E-02
      0.00000000000000E+00   0.00000000000000E+00   0.00000000000000E+00   0.00000000000000E+00   0.00000000000000E+00
     -6.20307950461758E-17   1.80000000000000E-01   1.80000000000000E-01   0.00000000000000E+00   0.00000000000000E+00
      7.40133635306149E-12   4.62900559330378E-15   7.40596535865479E-12   1.29733741226142E-17   2.90000000000000E-01
      2.90000000000000E-01   0.00000000000000E+00   0.00000000000000E+00   0.00000000000000E+00   0.00000000000000E+00
      0.00000000000000E+00   6.14662377572230E-17
      1.70000000000000E-01
      0.00000000000000E+00   0.00000000000000E+00   0.00000000000000E+00   0.00000000000000E+00  -2.02837958792664E-13
     -6.60854550673300E-12  -6.81138346552566E-12  -1.24523337269093E-17   6.80000000000000E-02   6.80000000000000E-02
      0.00000000000000E+00   0.00000000000000E+00   0.00000000000000E+00   0.00000000000000E+00   0.00000000000000E+00
     -6.08944704084773E-17   1.80000000000000E-01   1.80000000000000E-01   0.00000000000000E+00   0.00000000000000E+00
      6.80678207821799E-12   4.60138730767385E-15   6.81138346552566E-12   1.29300299410481E-17   2.90000000000000E-01
      2.90000000000000E-01   0.00000000000000E+00   0.00000000000000E+00   0.00000000000000E+00   0.00000000000000E+00
      0.00000000000000E+00   6.04167741943385E-17
      1.80000000000000E-01
      0.00000000000000E+00   0.00000000000000E+00   0.00000000000000E+00   0.00000000000000E+00  -2.04128684718608E-13
     -6.06624690301755E-12  -6.27037558773616E-12  -1.24958346241892E-17   7.20000000000000E-02   7.20000000000000E-02
      0.00000000000000E+00   0.00000000000000E+00   0.00000000000000E+00   0.00000000000000E+00   0.00000000000000E+00
     -5.97581473018413E-17   1.80000000000000E-01   1.80000000000000E-01   0.00000000000000E+00   0.00000000000000E+00
      6.26580178104392E-12   4.57380669224617E-15   6.27037558773616E-12   1.28866728238535E-17   2.90000000000000E-01
      2.90000000000000E-01   0.00000000000000E+00   0.00000000000000E+00   0.00000000000000E+00   0.00000000000000E+00
      0.00000000000000E+00   5.93673091021771E-17
      1.90000000000000E-01
      0.00000000000000E+00   0.00000000000000E+00   0.00000000000000E+00   0.00000000000000E+00  -2.05421513156683E-13
     -5.57303838382973E-12  -5.77845989698641E-12  -1.25393198342190E-17   7.60000000000000E-02   7.60000000000000E-02
      0.00000000000000E+00   0.00000000000000E+00   0.00000000000000E+00   0.00000000000000E+00   0.00000000000000E+00
     -5.86218254471176E-17   1.80000000000000E-01   1.80000000000000E-01   0.00000000000000E+00   0.00000000000000E+00
      5.77391363315876E-12   4.54626382765292E-15   5.77845989698641E-12   1.28433025215783E-17   2.90000000000000E-01
      2.90000000000000E-01   0.00000000000000E+00   0.00000000000000E+00   0.00000000000000E+00   0.00000000000000E+00
      0.00000000000000E+00   5.83178427597583E-17
      2.00000000000000E-01
      0.00000000000000E+00   0.00000000000000E+00   0.00000000000000E+00   0.00000000000000E+00  -2.06716424905389E-13
     -5.12476557539894E-12  -5.33148200030433E-12  -1.25827896589560E-17   8.00000000000000E-02   8.00000000000000E-02
      0.00000000000000E+00   0.00000000000000E+00   0.00000000000000E+00   0.00000000000000E+00   0.00000000000000E+00
     -5.74855045658510E-17   1.80000000000000E-01   1.80000000000000E-01   0.00000000000000E+00   0.00000000000000E+00
      5.32696324148258E-12   4.51875882175640E-15   5.33148200030433E-12   1.27999187793894E-17   2.90000000000000E-01
      2.90000000000000E-01   0.00000000000000E+00   0.00000000000000E+00   0.00000000000000E+00   0.00000000000000E+00
      0.00000000000000E+00   5.72683754454176E-17
      2.10000000000000E-01
      0.00000000000000E+00   0.00000000000000E+00   0.00000000000000E+00   0.00000000000000E+00  -2.08013400628083E-13
     -4.71758242296002E-12  -4.92559582358810E-12  -1.26262443937577E-17   8.40000000000000E-02   8.40000000000000E-02
      0.00000000000000E+00   0.00000000000000E+00   0.00000000000000E+00   0.00000000000000E+00   0.00000000000000E+00
     -5.63491843801307E-17   1.80000000000000E-01   1.80000000000000E-01   0.00000000000000E+00   0.00000000000000E+00
      4.92110453178565E-12   4.49129180246092E-15   4.92559582358811E-12   1.27565213369318E-17   2.90000000000000E-01
      2.90000000000000E-01   0.00000000000000E+00   0.00000000000000E+00   0.00000000000000E+00   0.00000000000000E+00
      0.00000000000000E+00   5.62189074369566E-17
      2.20000000000000E-01
      0.00000000000000E+00   0.00000000000000E+00   0.00000000000000E+00   0.00000000000000E+00  -2.09312420886150E-13
     -4.34793285220912E-12  -4.55724527309527E-12  -1.26696843275382E-17   8.80000000000000E-02   8.80000000000000E-02
      0.00000000000000E+00   0.00000000000000E+00   0.00000000000000E+00   0.00000000000000E+00   0.00000000000000E+00
     -5.52128646124397E-17   1.80000000000000E-01   1.80000000000000E-01   0.00000000000000E+00   0.00000000000000E+00
      4.55278141017555E-12   4.46386291972218E-15   4.55724527309527E-12   1.27131099281854E-17   2.90000000000000E-01
      2.90000000000000E-01   0.00000000000000E+00   0.00000000000000E+00   0.00000000000000E+00   0.00000000000000E+00
      0.00000000000000E+00   5.51694390117925E-17
      2.30000000000000E-01
      0.00000000000000E+00   0.00000000000000E+00   0.00000000000000E+00   0.00000000000000E+00  -2.10613466169186E-13
     -4.01253319832047E-12  -4.22314666448966E-12  -1.27131097429213E-17   9.20000000000000E-02   9.20000000000000E-02
      0.00000000000000E+00   0.00000000000000E+00   0.00000000000000E+00   0.00000000000000E+00   0.00000000000000E+00
     -5.40765449855049E-17   1.80000000000000E-01   1.80000000000000E-01   0.00000000000000E+00   0.00000000000000E+00
      4.21871019213681E-12   4.43647235285027E-15   4.22314666448966E-12   1.26696842813185E-17   2.90000000000000E-01
      2.90000000000000E-01   0.00000000000000E+00   0.00000000000000E+00   0.00000000000000E+00   0.00000000000000E+00
      0.00000000000000E+00   5.41199704471076E-17
      2.40000000000000E-01
      0.00000000000000E+00   0.00000000000000E+00   0.00000000000000E+00   0.00000000000000E+00  -2.11916516921962E-13
     -3.70835539144737E-12  -3.92027190836933E-12  -1.27565209163890E-17   9.60000000000000E-02   9.60000000000000E-02
      0.00000000000000E+00   0.00000000000000E+00   0.00000000000000E+00   0.00000000000000E+00   0.00000000000000E+00
     -5.29402252221470E-17   1.80000000000000E-01   1.80000000000000E-01   0.00000000000000E+00   0.00000000000000E+00
      3.91586278807157E-12   4.40912029774865E-15   3.92027190836932E-12   1.26262441185380E-17   2.90000000000000E-01
      2.90000000000000E-01   0.00000000000000E+00   0.00000000000000E+00   0.00000000000000E+00   0.00000000000000E+00
      0.00000000000000E+00   5.30705020199980E-17
      2.50000000000000E-01
      0.00000000000000E+00   0.00000000000000E+00   0.00000000000000E+00   0.00000000000000E+00  -2.13221553569896E-13
     -3.43261088705583E-12  -3.64583244062573E-12  -1.27999181184277E-17   1.00000000000000E-01   1.00000000000000E-01
      0.00000000000000E+00   0.00000000000000E+00   0.00000000000000E+00   0.00000000000000E+00   0.00000000000000E+00
     -5.18039050451310E-17   1.80000000000000E-01   1.80000000000000E-01   0.00000000000000E+00   0.00000000000000E+00
      3.64145063364154E-12   4.38180698418910E-15   3.64583244062573E-12   1.25827891559364E-17   2.90000000000000E-01
      2.90000000000000E-01   0.00000000000000E+00   0.00000000000000E+00   0.00000000000000E+00   0.00000000000000E+00
      0.00000000000000E+00   5.20210340076223E-17
      2.60000000000000E-01
      0.00000000000000E+00   0.00000000000000E+00   0.00000000000000E+00   0.00000000000000E+00  -2.14528556540130E-13
     -3.18273532870894E-12  -3.39726388524907E-12  -1.28433016136688E-17   1.04000000000000E-01   1.04000000000000E-01
      0.00000000000000E+00   0.00000000000000E+00   0.00000000000000E+00   0.00000000000000E+00   0.00000000000000E+00
     -5.06675841770171E-17   1.80000000000000E-01   1.80000000000000E-01   0.00000000000000E+00   0.00000000000000E+00
      3.39290935257419E-12   4.35453267487342E-15   3.39726388524906E-12   1.25393191033349E-17   2.90000000000000E-01
      2.90000000000000E-01   0.00000000000000E+00   0.00000000000000E+00   0.00000000000000E+00   0.00000000000000E+00
      0.00000000000000E+00   5.09715666873509E-17
      2.70000000000000E-01
      0.00000000000000E+00   0.00000000000000E+00   0.00000000000000E+00   0.00000000000000E+00  -2.15837506282155E-13
     -2.95637393036378E-12  -3.17221143664594E-12  -1.28866716610276E-17   1.08000000000000E-01   1.08000000000000E-01
      0.00000000000000E+00   0.00000000000000E+00   0.00000000000000E+00   0.00000000000000E+00   0.00000000000000E+00
     -4.95312623400106E-17   1.80000000000000E-01   1.80000000000000E-01   0.00000000000000E+00   0.00000000000000E+00
      3.16788413899521E-12   4.32729765073334E-15   3.17221143664594E-12   1.24958336641237E-17   2.90000000000000E-01
      2.90000000000000E-01   0.00000000000000E+00   0.00000000000000E+00   0.00000000000000E+00   0.00000000000000E+00
      0.00000000000000E+00   4.99221003369146E-17
      2.80000000000000E-01
      0.00000000000000E+00   0.00000000000000E+00   0.00000000000000E+00   0.00000000000000E+00  -2.17148383285934E-13
     -2.75136756471199E-12  -2.96851594799793E-12  -1.29300285138381E-17   1.12000000000000E-01   1.12000000000000E-01
      0.00000000000000E+00   0.00000000000000E+00   0.00000000000000E+00   0.00000000000000E+00   0.00000000000000E+00
     -4.83949392558126E-17   1.80000000000000E-01   1.80000000000000E-01   0.00000000000000E+00   0.00000000000000E+00
      2.96421584576260E-12   4.30010223532516E-15   2.96851594799793E-12   1.24523325350973E-17   2.90000000000000E-01
      2.90000000000000E-01   0.00000000000000E+00   0.00000000000000E+00   0.00000000000000E+00   0.00000000000000E+00
      0.00000000000000E+00   4.88726352345534E-17
      2.90000000000000E-01
      0.00000000000000E+00   0.00000000000000E+00   0.00000000000000E+00   0.00000000000000E+00  -2.18461168097068E-13
     -2.56573954341121E-12  -2.78420071150828E-12  -1.29733724199840E-17   1.16000000000000E-01   1.16000000000000E-01
      0.00000000000000E+00   0.00000000000000E+00   0.00000000000000E+00   0.00000000000000E+00   0.00000000000000E+00
     -4.72586146454697E-17   1.80000000000000E-01   1.80000000000000E-01   0.00000000000000E+00   0.00000000000000E+00
      2.77992776473287E-12   4.27294677540275E-15   2.78420071150828E-12   1.24088154062874E-17   2.90000000000000E-01
      2.90000000000000E-01   0.00000000000000E+00   0.00000000000000E+00   0.00000000000000E+00   0.00000000000000E+00
      0.00000000000000E+00   4.78231716591663E-17
      3.00000000000000E-01
      0.00000000000000E+00   0.00000000000000E+00   0.00000000000000E+00   0.00000000000000E+00  -2.19775841332032E-13
     -2.39768307470348E-12  -2.61745891603551E-12  -1.30167036220271E-17   1.20000000000000E-01   1.20000000000000E-01
      0.00000000000000E+00   0.00000000000000E+00   0.00000000000000E+00   0.00000000000000E+00   0.00000000000000E+00
     -4.61222882292240E-17   1.80000000000000E-01   1.80000000000000E-01   0.00000000000000E+00   0.00000000000000E+00
      2.61321308438318E-12   4.24583165233309E-15   2.61745891603551E-12   1.23652819607899E-17   2.90000000000000E-01
      2.90000000000000E-01   0.00000000000000E+00   0.00000000000000E+00   0.00000000000000E+00   0.00000000000000E+00
      0.00000000000000E+00   4.67737098904612E-17
      3.10000000000000E-01
      0.00000000000000E+00   0.00000000000000E+00   0.00000000000000E+00   0.00000000000000E+00  -2.21092383691463E-13
     -2.24554938332871E-12  -2.46664176702017E-12  -1.30600223573323E-17   1.24000000000000E-01   1.24000000000000E-01
      0.00000000000000E+00   0.00000000000000E+00   0.00000000000000E+00   0.00000000000000E+00   0.00000000000000E+00
     -4.49859597263619E-17   1.80000000000000E-01   1.80000000000000E-01   0.00000000000000E+00   0.00000000000000E+00
      2.46242300973998E-12   4.21875728018860E-15   2.46664176702017E-12   1.23217318745895E-17   2.90000000000000E-01
      2.90000000000000E-01   0.00000000000000E+00   0.00000000000000E+00   0.00000000000000E+00   0.00000000000000E+00
      0.00000000000000E+00   4.57242502091048E-17
      3.20000000000000E-01
      0.00000000000000E+00   0.00000000000000E+00   0.00000000000000E+00   0.00000000000000E+00  -2.22410775970291E-13
     -2.10783647727844E-12  -2.33024725324873E-12  -1.31033288581895E-17   1.28000000000000E-01   1.28000000000000E-01
      0.00000000000000E+00   0.00000000000000E+00   0.00000000000000E+00   0.00000000000000E+00   0.00000000000000E+00
     -4.38496288550627E-17   1.80000000000000E-01   1.80000000000000E-01   0.00000000000000E+00   0.00000000000000E+00
      2.32605552914383E-12   4.19172410489553E-15   2.33024725324873E-12   1.22781648163786E-17   2.90000000000000E-01
      2.90000000000000E-01   0.00000000000000E+00   0.00000000000000E+00   0.00000000000000E+00   0.00000000000000E+00
      0.00000000000000E+00   4.46747928968736E-17
      3.30000000000000E-01
      0.00000000000000E+00   0.00000000000000E+00   0.00000000000000E+00   0.00000000000000E+00  -2.23730999069172E-13
     -1.98317854554360E-12  -2.20690954461277E-12  -1.31466233519323E-17   1.32000000000000E-01   1.32000000000000E-01
      0.00000000000000E+00   0.00000000000000E+00   0.00000000000000E+00   0.00000000000000E+00   0.00000000000000E+00
     -4.27132953322465E-17   1.80000000000000E-01   1.80000000000000E-01   0.00000000000000E+00   0.00000000000000E+00
      2.20274481201179E-12   4.16473260097870E-15   2.20690954461277E-12   1.22345804473727E-17   2.90000000000000E-01
      2.90000000000000E-01   0.00000000000000E+00   0.00000000000000E+00   0.00000000000000E+00   0.00000000000000E+00
      0.00000000000000E+00   4.36253382368061E-17
      3.40000000000000E-01
      0.00000000000000E+00   0.00000000000000E+00   0.00000000000000E+00   0.00000000000000E+00  -2.25053034003091E-13
     -1.87033597070606E-12  -2.09538900470915E-12  -1.31899060610541E-17   1.36000000000000E-01   1.36000000000000E-01
      0.00000000000000E+00   0.00000000000000E+00   0.00000000000000E+00   0.00000000000000E+00   0.00000000000000E+00
     -4.15769588734208E-17   1.80000000000000E-01   1.80000000000000E-01   0.00000000000000E+00   0.00000000000000E+00
      2.09125122143115E-12   4.13778327800274E-15   2.09538900470915E-12   1.21909784211198E-17   2.90000000000000E-01
      2.90000000000000E-01   0.00000000000000E+00   0.00000000000000E+00   0.00000000000000E+00   0.00000000000000E+00
      0.00000000000000E+00   4.25758865133551E-17
      3.50000000000000E-01
      0.00000000000000E+00   0.00000000000000E+00   0.00000000000000E+00   0.00000000000000E+00  -2.26376861909439E-13
     -1.76818593992614E-12  -1.99456280183558E-12  -1.32331772033212E-17   1.40000000000000E-01   1.40000000000000E-01
      0.00000000000000E+00   0.00000000000000E+00   0.00000000000000E+00   0.00000000000000E+00   0.00000000000000E+00
     -4.04406191925268E-17   1.80000000000000E-01   1.80000000000000E-01   0.00000000000000E+00   0.00000000000000E+00
      1.99045192516070E-12   4.11087667487947E-15   1.99456280183558E-12   1.21473583833069E-17   2.90000000000000E-01
      2.90000000000000E-01   0.00000000000000E+00   0.00000000000000E+00   0.00000000000000E+00   0.00000000000000E+00
      0.00000000000000E+00   4.15264380125411E-17
      3.60000000000000E-01
      0.00000000000000E+00   0.00000000000000E+00   0.00000000000000E+00   0.00000000000000E+00  -2.27702464054771E-13
     -1.67571363771502E-12  -1.90341610176980E-12  -1.32764369918828E-17   1.44000000000000E-01   1.44000000000000E-01
      0.00000000000000E+00   0.00000000000000E+00   0.00000000000000E+00   0.00000000000000E+00   0.00000000000000E+00
     -3.93042760017836E-17   1.80000000000000E-01   1.80000000000000E-01   0.00000000000000E+00   0.00000000000000E+00
      1.89933208840862E-12   4.08401336117483E-15   1.90341610176980E-12   1.21037199715592E-17   2.90000000000000E-01
      2.90000000000000E-01   0.00000000000000E+00   0.00000000000000E+00   0.00000000000000E+00   0.00000000000000E+00
      0.00000000000000E+00   4.04769930221072E-17
      3.70000000000000E-01
      0.00000000000000E+00   0.00000000000000E+00   0.00000000000000E+00   0.00000000000000E+00  -2.29029821841867E-13