DF-ISE text

Info {
  version   = 1.0
  type      = xyplot
  datasets  = [
    "time"
    "source OuterVoltage" "source InnerVoltage" "source QuasiFermiPotential" "source DisplacementCurrent" "source eCurrent"
    "source hCurrent" "source TotalCurrent" "source Charge" "topGate OuterVoltage" "topGate InnerVoltage"
    "topGate QuasiFermiPotential" "topGate DisplacementCurrent" "topGate eCurrent" "topGate hCurrent" "topGate TotalCurrent"
    "topGate Charge" "drain OuterVoltage" "drain InnerVoltage" "drain QuasiFermiPotential" "drain DisplacementCurrent"
    "drain eCurrent" "drain hCurrent" "drain TotalCurrent" "drain Charge" "bottomGate OuterVoltage"
    "bottomGate InnerVoltage" "bottomGate QuasiFermiPotential" "bottomGate DisplacementCurrent" "bottomGate eCurrent" "bottomGate hCurrent"
    "bottomGate TotalCurrent" "bottomGate Charge" ]
  functions = [
    Time
    OuterVoltage InnerVoltage QuasiFermiPotential DisplacementCurrent eCurrent
    hCurrent TotalCurrent Charge OuterVoltage InnerVoltage
    QuasiFermiPotential DisplacementCurrent eCurrent hCurrent TotalCurrent
    Charge OuterVoltage InnerVoltage QuasiFermiPotential DisplacementCurrent
    eCurrent hCurrent TotalCurrent Charge OuterVoltage
    InnerVoltage QuasiFermiPotential DisplacementCurrent eCurrent hCurrent
    TotalCurrent Charge ]
}

Data {
      1.00000000000000E-02
      0.00000000000000E+00   0.00000000000000E+00   0.00000000000000E+00   0.00000000000000E+00  -1.85413817300548E-13
     -2.33095726558357E-11  -2.34949864731362E-11  -1.18633590108931E-17   4.00000000000000E-03   4.00000000000000E-03
      0.00000000000000E+00   0.00000000000000E+00   0.00000000000000E+00   0.00000000000000E+00   0.00000000000000E+00
     -8.14833208989369E-17   1.60000000000000E-01   1.60000000000000E-01   0.00000000000000E+00   0.00000000000000E+00
      2.34903015057305E-11   4.68496740568342E-15   2.34949864731362E-11   1.30816742294049E-17   3.00000000000000E-01
      3.00000000000000E-01   0.00000000000000E+00   0.00000000000000E+00   0.00000000000000E+00   0.00000000000000E+00
      0.00000000000000E+00   8.02650056804250E-17
      2.00000000000000E-02
      0.00000000000000E+00   0.00000000000000E+00   0.00000000000000E+00   0.00000000000000E+00  -1.86673805515721E-13
     -2.14416765414513E-11  -2.16283503469670E-11  -1.19071049391847E-17   8.00000000000000E-03   8.00000000000000E-03
      0.00000000000000E+00   0.00000000000000E+00   0.00000000000000E+00   0.00000000000000E+00   0.00000000000000E+00
     -8.03468971985741E-17   1.60000000000000E-01   1.60000000000000E-01   0.00000000000000E+00   0.00000000000000E+00
      2.16236929009568E-11   4.65744601014304E-15   2.16283503469670E-11   1.30383609995110E-17   3.00000000000000E-01
      3.00000000000000E-01   0.00000000000000E+00   0.00000000000000E+00   0.00000000000000E+00   0.00000000000000E+00
      0.00000000000000E+00   7.92156411382478E-17
      3.00000000000000E-02
      0.00000000000000E+00   0.00000000000000E+00   0.00000000000000E+00   0.00000000000000E+00  -1.87936047865822E-13
     -1.97225993290175E-11  -1.99105353768834E-11  -1.19508303694694E-17   1.20000000000000E-02   1.20000000000000E-02
      0.00000000000000E+00   0.00000000000000E+00   0.00000000000000E+00   0.00000000000000E+00   0.00000000000000E+00
     -7.92104775951165E-17   1.60000000000000E-01   1.60000000000000E-01   0.00000000000000E+00   0.00000000000000E+00
      1.99059054077279E-11   4.62996915551983E-15   1.99105353768834E-11   1.29950354599581E-17   3.00000000000000E-01
      3.00000000000000E-01   0.00000000000000E+00   0.00000000000000E+00   0.00000000000000E+00   0.00000000000000E+00
      0.00000000000000E+00   7.81662725046278E-17
      4.00000000000000E-02
      0.00000000000000E+00   0.00000000000000E+00   0.00000000000000E+00   0.00000000000000E+00  -1.89200538356595E-13
     -1.81416575368208E-11  -1.83308580751774E-11  -1.19945357103301E-17   1.60000000000000E-02   1.60000000000000E-02
      0.00000000000000E+00   0.00000000000000E+00   0.00000000000000E+00   0.00000000000000E+00   0.00000000000000E+00
     -7.80740617647811E-17   1.60000000000000E-01   1.60000000000000E-01   0.00000000000000E+00   0.00000000000000E+00
      1.83262555386830E-11   4.60253649445648E-15   1.83308580751774E-11   1.29516973721849E-17   3.00000000000000E-01
      3.00000000000000E-01   0.00000000000000E+00   0.00000000000000E+00   0.00000000000000E+00   0.00000000000000E+00
      0.00000000000000E+00   7.71169001029263E-17
      5.00000000000000E-02
      0.00000000000000E+00   0.00000000000000E+00   0.00000000000000E+00   0.00000000000000E+00  -1.90467269399860E-13
     -1.66888150602033E-11  -1.68792823296032E-11  -1.20382213612000E-17   2.00000000000000E-02   2.00000000000000E-02
      0.00000000000000E+00   0.00000000000000E+00   0.00000000000000E+00   0.00000000000000E+00   0.00000000000000E+00
     -7.69376493859318E-17   1.60000000000000E-01   1.60000000000000E-01   0.00000000000000E+00   0.00000000000000E+00
      1.68747071819288E-11   4.57514767440784E-15   1.68792823296032E-11   1.29083464927379E-17   3.00000000000000E-01
      3.00000000000000E-01   0.00000000000000E+00   0.00000000000000E+00   0.00000000000000E+00   0.00000000000000E+00
      0.00000000000000E+00   7.60675242543939E-17
      6.00000000000000E-02
      0.00000000000000E+00   0.00000000000000E+00   0.00000000000000E+00   0.00000000000000E+00  -1.91736231976037E-13
     -1.53546529432152E-11  -1.55463891751913E-11  -1.20818877125827E-17   2.40000000000000E-02   2.40000000000000E-02
      0.00000000000000E+00   0.00000000000000E+00   0.00000000000000E+00   0.00000000000000E+00   0.00000000000000E+00
     -7.58012401388954E-17   1.60000000000000E-01   1.60000000000000E-01   0.00000000000000E+00   0.00000000000000E+00
      1.55418413728915E-11   4.54780229982004E-15   1.55463891751913E-11   1.28649825731267E-17   3.00000000000000E-01
      3.00000000000000E-01   0.00000000000000E+00   0.00000000000000E+00   0.00000000000000E+00   0.00000000000000E+00
      0.00000000000000E+00   7.50181452783515E-17
      7.00000000000000E-02
      0.00000000000000E+00   0.00000000000000E+00   0.00000000000000E+00   0.00000000000000E+00  -1.93007415783346E-13
     -1.41303400476045E-11  -1.43233474633878E-11  -1.21255351462667E-17   2.80000000000000E-02   2.80000000000000E-02
      0.00000000000000E+00   0.00000000000000E+00   0.00000000000000E+00   0.00000000000000E+00   0.00000000000000E+00
     -7.46648337057795E-17   1.60000000000000E-01   1.60000000000000E-01   0.00000000000000E+00   0.00000000000000E+00
      1.43188269633928E-11   4.52049999504581E-15   1.43233474633878E-11   1.28216053596762E-17   3.00000000000000E-01
      3.00000000000000E-01   0.00000000000000E+00   0.00000000000000E+00   0.00000000000000E+00   0.00000000000000E+00
      0.00000000000000E+00   7.39687634923700E-17
      8.00000000000000E-02
      0.00000000000000E+00   0.00000000000000E+00   0.00000000000000E+00   0.00000000000000E+00  -1.94280809373556E-13
     -1.30076046127618E-11  -1.32018854221353E-11  -1.21691640355338E-17   3.20000000000000E-02   3.20000000000000E-02
      0.00000000000000E+00   0.00000000000000E+00   0.00000000000000E+00   0.00000000000000E+00   0.00000000000000E+00
     -7.35284297702921E-17   1.60000000000000E-01   1.60000000000000E-01   0.00000000000000E+00   0.00000000000000E+00
      1.31973921817417E-11   4.49324039371146E-15   1.32018854221354E-11   1.27782145933782E-17   3.00000000000000E-01
      3.00000000000000E-01   0.00000000000000E+00   0.00000000000000E+00   0.00000000000000E+00   0.00000000000000E+00
      0.00000000000000E+00   7.29193792124477E-17
      9.00000000000000E-02
      0.00000000000000E+00   0.00000000000000E+00   0.00000000000000E+00   0.00000000000000E+00  -1.95556400274945E-13
     -1.19787067004712E-11  -1.21742631007461E-11  -1.22127747453637E-17   3.60000000000000E-02   3.60000000000000E-02
      0.00000000000000E+00   0.00000000000000E+00   0.00000000000000E+00   0.00000000000000E+00   0.00000000000000E+00
     -7.23920280175632E-17   1.60000000000000E-01   1.60000000000000E-01   0.00000000000000E+00   0.00000000000000E+00
      1.21697970776457E-11   4.46602310045720E-15   1.21742631007461E-11   1.27348100097404E-17   3.00000000000000E-01
      3.00000000000000E-01   0.00000000000000E+00   0.00000000000000E+00   0.00000000000000E+00   0.00000000000000E+00
      0.00000000000000E+00   7.18699927531865E-17
      1.00000000000000E-01
      0.00000000000000E+00   0.00000000000000E+00   0.00000000000000E+00   0.00000000000000E+00  -1.96834175105145E-13
     -1.10364115182984E-11  -1.12332456934035E-11  -1.22563676326323E-17   4.00000000000000E-02   4.00000000000000E-02
      0.00000000000000E+00   0.00000000000000E+00   0.00000000000000E+00   0.00000000000000E+00   0.00000000000000E+00
     -7.12556281339680E-17   1.60000000000000E-01   1.60000000000000E-01   0.00000000000000E+00   0.00000000000000E+00
      1.12288068456490E-11   4.43884775457645E-15   1.12332456934035E-11   1.26913913386327E-17   3.00000000000000E-01
      3.00000000000000E-01   0.00000000000000E+00   0.00000000000000E+00   0.00000000000000E+00   0.00000000000000E+00
      0.00000000000000E+00   7.08206044279676E-17
      1.10000000000000E-01
      0.00000000000000E+00   0.00000000000000E+00   0.00000000000000E+00   0.00000000000000E+00  -1.98114119674395E-13
     -1.01739636149142E-11  -1.03720777345886E-11  -1.22999430463059E-17   4.40000000000000E-02   4.40000000000000E-02
      0.00000000000000E+00   0.00000000000000E+00   0.00000000000000E+00   0.00000000000000E+00   0.00000000000000E+00
     -7.01192298069504E-17   1.60000000000000E-01   1.60000000000000E-01   0.00000000000000E+00   0.00000000000000E+00
      1.03676660205906E-11   4.41171399798607E-15   1.03720777345886E-11   1.26479583041317E-17   3.00000000000000E-01
      3.00000000000000E-01   0.00000000000000E+00   0.00000000000000E+00   0.00000000000000E+00   0.00000000000000E+00
      0.00000000000000E+00   6.97712145491245E-17
      1.20000000000000E-01
      0.00000000000000E+00   0.00000000000000E+00   0.00000000000000E+00   0.00000000000000E+00  -1.99396219078162E-13
     -9.38506194068840E-12  -9.58445815976656E-12  -1.23435013276303E-17   4.80000000000000E-02   4.80000000000000E-02
      0.00000000000000E+00   0.00000000000000E+00   0.00000000000000E+00   0.00000000000000E+00   0.00000000000000E+00
     -6.89828327248487E-17   1.60000000000000E-01   1.60000000000000E-01   0.00000000000000E+00   0.00000000000000E+00
      9.58007353828134E-12   4.38462148523028E-15   9.58445815976656E-12   1.26045106243621E-17   3.00000000000000E-01
      3.00000000000000E-01   0.00000000000000E+00   0.00000000000000E+00   0.00000000000000E+00   0.00000000000000E+00
      0.00000000000000E+00   6.87218234281169E-17
      1.30000000000000E-01
      0.00000000000000E+00   0.00000000000000E+00   0.00000000000000E+00   0.00000000000000E+00  -2.00680457782967E-13
     -8.66383576633767E-12  -8.86451622412063E-12  -1.23870428103152E-17   5.20000000000000E-02   5.20000000000000E-02
      0.00000000000000E+00   0.00000000000000E+00   0.00000000000000E+00   0.00000000000000E+00   0.00000000000000E+00
     -6.78464365767221E-17   1.60000000000000E-01   1.60000000000000E-01   0.00000000000000E+00   0.00000000000000E+00
      8.86015865422679E-12   4.35756989384196E-15   8.86451622412063E-12   1.25610480113354E-17   3.00000000000000E-01
      3.00000000000000E-01   0.00000000000000E+00   0.00000000000000E+00   0.00000000000000E+00   0.00000000000000E+00
      0.00000000000000E+00   6.76724313757020E-17
      1.40000000000000E-01
      0.00000000000000E+00   0.00000000000000E+00   0.00000000000000E+00   0.00000000000000E+00  -2.01966819703784E-13
     -8.00482145200513E-12  -8.20678827170891E-12  -1.24305678207143E-17   5.60000000000000E-02   5.60000000000000E-02
      0.00000000000000E+00   0.00000000000000E+00   0.00000000000000E+00   0.00000000000000E+00   0.00000000000000E+00
     -6.67100410521774E-17   1.60000000000000E-01   1.60000000000000E-01   0.00000000000000E+00   0.00000000000000E+00
      8.20245771278341E-12   4.33055892549780E-15   8.20678827170891E-12   1.25175701707854E-17   3.00000000000000E-01
      3.00000000000000E-01   0.00000000000000E+00   0.00000000000000E+00   0.00000000000000E+00   0.00000000000000E+00
      0.00000000000000E+00   6.66230387021064E-17
      1.50000000000000E-01
      0.00000000000000E+00   0.00000000000000E+00   0.00000000000000E+00   0.00000000000000E+00  -2.03255288274149E-13
     -7.40294005868172E-12  -7.60619534695587E-12  -1.24740766780002E-17   6.00000000000000E-02   6.00000000000000E-02
      0.00000000000000E+00   0.00000000000000E+00   0.00000000000000E+00   0.00000000000000E+00   0.00000000000000E+00
     -6.55736458411969E-17   1.60000000000000E-01   1.60000000000000E-01   0.00000000000000E+00   0.00000000000000E+00
      7.60189175864543E-12   4.30358831043785E-15   7.60619534695587E-12   1.24740768020006E-17   3.00000000000000E-01
      3.00000000000000E-01   0.00000000000000E+00   0.00000000000000E+00   0.00000000000000E+00   0.00000000000000E+00
      0.00000000000000E+00   6.55736457171965E-17
      1.60000000000000E-01
      0.00000000000000E+00   0.00000000000000E+00   0.00000000000000E+00   0.00000000000000E+00  -2.04545846510441E-13
     -6.85347579332600E-12  -7.05802163983645E-12  -1.25175696943361E-17   6.40000000000000E-02   6.40000000000000E-02
      0.00000000000000E+00   0.00000000000000E+00   0.00000000000000E+00   0.00000000000000E+00   0.00000000000000E+00
     -6.44372506339667E-17   1.60000000000000E-01   1.60000000000000E-01   0.00000000000000E+00   0.00000000000000E+00
      7.05374498202699E-12   4.27665780945609E-15   7.05802163983644E-12   1.24305675976532E-17   3.00000000000000E-01
      3.00000000000000E-01   0.00000000000000E+00   0.00000000000000E+00   0.00000000000000E+00   0.00000000000000E+00
      0.00000000000000E+00   6.45242527306496E-17
      1.70000000000000E-01
      0.00000000000000E+00   0.00000000000000E+00   0.00000000000000E+00   0.00000000000000E+00  -2.05838477071102E-13
     -6.35205527848181E-12  -6.55789375555292E-12  -1.25610471750422E-17   6.80000000000000E-02   6.80000000000000E-02
      0.00000000000000E+00   0.00000000000000E+00   0.00000000000000E+00   0.00000000000000E+00   0.00000000000000E+00
     -6.33008551207054E-17   1.60000000000000E-01   1.60000000000000E-01   0.00000000000000E+00   0.00000000000000E+00
      6.55364398833494E-12   4.24976721797819E-15   6.55789375555292E-12   1.23870422436245E-17   3.00000000000000E-01
      3.00000000000000E-01   0.00000000000000E+00   0.00000000000000E+00   0.00000000000000E+00   0.00000000000000E+00
      0.00000000000000E+00   6.34748600521232E-17
      1.80000000000000E-01
      0.00000000000000E+00   0.00000000000000E+00   0.00000000000000E+00   0.00000000000000E+00  -2.07133162307798E-13
     -5.89462763659282E-12  -6.10176079890062E-12  -1.26045094187586E-17   7.20000000000000E-02   7.20000000000000E-02
      0.00000000000000E+00   0.00000000000000E+00   0.00000000000000E+00   0.00000000000000E+00   0.00000000000000E+00
     -6.21644589914931E-17   1.60000000000000E-01   1.60000000000000E-01   0.00000000000000E+00   0.00000000000000E+00
      6.09753788252857E-12   4.22291637204713E-15   6.10176079890061E-12   1.23435004188260E-17   3.00000000000000E-01
      3.00000000000000E-01   0.00000000000000E+00   0.00000000000000E+00   0.00000000000000E+00   0.00000000000000E+00
      0.00000000000000E+00   6.24254679914257E-17
      1.90000000000000E-01
      0.00000000000000E+00   0.00000000000000E+00   0.00000000000000E+00   0.00000000000000E+00  -2.08429884315654E-13
     -5.47744537859091E-12  -5.68587526290657E-12  -1.26479567176040E-17   7.60000000000000E-02   7.60000000000000E-02
      0.00000000000000E+00   0.00000000000000E+00   0.00000000000000E+00   0.00000000000000E+00   0.00000000000000E+00
     -6.10280619360999E-17   1.60000000000000E-01   1.60000000000000E-01   0.00000000000000E+00   0.00000000000000E+00
      5.68167915775886E-12   4.19610514770581E-15   5.68587526290657E-12   1.22999417950178E-17   3.00000000000000E-01
      3.00000000000000E-01   0.00000000000000E+00   0.00000000000000E+00   0.00000000000000E+00   0.00000000000000E+00
      0.00000000000000E+00   6.13760768586861E-17
      2.00000000000000E-01
      0.00000000000000E+00   0.00000000000000E+00   0.00000000000000E+00   0.00000000000000E+00  -2.09728624975235E-13
     -5.09704608573512E-12  -5.30677471071035E-12  -1.26913893573302E-17   8.00000000000000E-02   8.00000000000000E-02
      0.00000000000000E+00   0.00000000000000E+00   0.00000000000000E+00   0.00000000000000E+00   0.00000000000000E+00
     -5.98916636438156E-17   1.60000000000000E-01   1.60000000000000E-01   0.00000000000000E+00   0.00000000000000E+00
      5.30260537724025E-12   4.16933347010662E-15   5.30677471071035E-12   1.22563660366217E-17   3.00000000000000E-01
      3.00000000000000E-01   0.00000000000000E+00   0.00000000000000E+00   0.00000000000000E+00   0.00000000000000E+00
      0.00000000000000E+00   6.03266869645240E-17
      2.10000000000000E-01
      0.00000000000000E+00   0.00000000000000E+00   0.00000000000000E+00   0.00000000000000E+00  -2.11029365993213E-13
     -4.75023487300524E-12  -4.96126423899846E-12  -1.27348076174732E-17   8.40000000000000E-02   8.40000000000000E-02
      0.00000000000000E+00   0.00000000000000E+00   0.00000000000000E+00   0.00000000000000E+00   0.00000000000000E+00
     -5.87552638032776E-17   1.60000000000000E-01   1.60000000000000E-01   0.00000000000000E+00   0.00000000000000E+00
      4.95712163769221E-12   4.14260130624753E-15   4.96126423899846E-12   1.22127728005306E-17   3.00000000000000E-01
      3.00000000000000E-01   0.00000000000000E+00   0.00000000000000E+00   0.00000000000000E+00   0.00000000000000E+00
      0.00000000000000E+00   5.92772986202202E-17
      2.20000000000000E-01
      0.00000000000000E+00   0.00000000000000E+00   0.00000000000000E+00   0.00000000000000E+00  -2.12332088937131E-13
     -4.43406762178405E-12  -4.64639971072118E-12  -1.27782117715003E-17   8.80000000000000E-02   8.80000000000000E-02
      0.00000000000000E+00   0.00000000000000E+00   0.00000000000000E+00   0.00000000000000E+00   0.00000000000000E+00
     -5.76188621022999E-17   1.60000000000000E-01   1.60000000000000E-01   0.00000000000000E+00   0.00000000000000E+00
      4.64228380204677E-12   4.11590867441159E-15   4.64639971072118E-12   1.21691617359129E-17   3.00000000000000E-01
      3.00000000000000E-01   0.00000000000000E+00   0.00000000000000E+00   0.00000000000000E+00   0.00000000000000E+00
      0.00000000000000E+00   5.82279121378874E-17
      2.30000000000000E-01
      0.00000000000000E+00   0.00000000000000E+00   0.00000000000000E+00   0.00000000000000E+00  -2.13636775269949E-13
     -4.14583496889452E-12  -4.35947174416447E-12  -1.28216020869537E-17   9.20000000000000E-02   9.20000000000000E-02
      0.00000000000000E+00   0.00000000000000E+00   0.00000000000000E+00   0.00000000000000E+00   0.00000000000000E+00
     -5.64824582277009E-17   1.60000000000000E-01   1.60000000000000E-01   0.00000000000000E+00   0.00000000000000E+00
      4.35538248850801E-12   4.08925565646846E-15   4.35947174416448E-12   1.21255324840134E-17   3.00000000000000E-01
      3.00000000000000E-01   0.00000000000000E+00   0.00000000000000E+00   0.00000000000000E+00   0.00000000000000E+00
      0.00000000000000E+00   5.71785278306412E-17
      2.40000000000000E-01
      0.00000000000000E+00   0.00000000000000E+00   0.00000000000000E+00   0.00000000000000E+00  -2.14943406376485E-13
     -3.88304703841614E-12  -4.09799044479262E-12  -1.28649788255901E-17   9.60000000000000E-02   9.60000000000000E-02
      0.00000000000000E+00   0.00000000000000E+00   0.00000000000000E+00   0.00000000000000E+00   0.00000000000000E+00
     -5.53460518651303E-17   1.60000000000000E-01   1.60000000000000E-01   0.00000000000000E+00   0.00000000000000E+00
      4.09392780242695E-12   4.06264236566992E-15   4.09799044479262E-12   1.20818846779478E-17   3.00000000000000E-01
      3.00000000000000E-01   0.00000000000000E+00   0.00000000000000E+00   0.00000000000000E+00   0.00000000000000E+00
      0.00000000000000E+00   5.61291460127726E-17
      2.50000000000000E-01
      0.00000000000000E+00   0.00000000000000E+00   0.00000000000000E+00   0.00000000000000E+00  -2.16251963593698E-13
     -3.64341890228741E-12  -3.85967086588111E-12  -1.29083422435175E-17   1.00000000000000E-01   1.00000000000000E-01
      0.00000000000000E+00   0.00000000000000E+00   0.00000000000000E+00   0.00000000000000E+00   0.00000000000000E+00
     -5.42096426988962E-17   1.60000000000000E-01   1.60000000000000E-01   0.00000000000000E+00   0.00000000000000E+00
      3.85563479688584E-12   4.03606899526254E-15   3.85967086588111E-12   1.20382179424936E-17   3.00000000000000E-01
      3.00000000000000E-01   0.00000000000000E+00   0.00000000000000E+00   0.00000000000000E+00   0.00000000000000E+00
      0.00000000000000E+00   5.50797669999201E-17
      2.60000000000000E-01
      0.00000000000000E+00   0.00000000000000E+00   0.00000000000000E+00   0.00000000000000E+00  -2.17562428231018E-13
     -3.42485675484319E-12  -3.64241918307420E-12  -1.29516925913282E-17   1.04000000000000E-01   1.04000000000000E-01
      0.00000000000000E+00   0.00000000000000E+00   0.00000000000000E+00   0.00000000000000E+00   0.00000000000000E+00
     -5.30732304117903E-17   1.60000000000000E-01   1.60000000000000E-01   0.00000000000000E+00   0.00000000000000E+00
      3.63840964729456E-12   4.00953577964286E-15   3.64241918307420E-12   1.19945318938748E-17   3.00000000000000E-01
      3.00000000000000E-01   0.00000000000000E+00   0.00000000000000E+00   0.00000000000000E+00   0.00000000000000E+00
      0.00000000000000E+00   5.40303911092437E-17
      2.70000000000000E-01
      0.00000000000000E+00   0.00000000000000E+00   0.00000000000000E+00   0.00000000000000E+00  -2.18874781593874E-13
     -3.22544478621185E-12  -3.44431956780572E-12  -1.29950301142284E-17   1.08000000000000E-01   1.08000000000000E-01
      0.00000000000000E+00   0.00000000000000E+00   0.00000000000000E+00   0.00000000000000E+00   0.00000000000000E+00
     -5.19368146849129E-17   1.60000000000000E-01   1.60000000000000E-01   0.00000000000000E+00   0.00000000000000E+00
      3.44033652479217E-12   3.98304301353709E-15   3.44431956780571E-12   1.19508261395417E-17   3.00000000000000E-01
      3.00000000000000E-01   0.00000000000000E+00   0.00000000000000E+00   0.00000000000000E+00   0.00000000000000E+00
      0.00000000000000E+00   5.29810186595996E-17
      2.80000000000000E-01
      0.00000000000000E+00   0.00000000000000E+00   0.00000000000000E+00   0.00000000000000E+00  -2.20189005004968E-13
     -3.04343273877485E-12  -3.26362174377982E-12  -1.30383550521652E-17   1.12000000000000E-01   1.12000000000000E-01
      0.00000000000000E+00   0.00000000000000E+00   0.00000000000000E+00   0.00000000000000E+00   0.00000000000000E+00
     -5.08003951974961E-17   1.60000000000000E-01   1.60000000000000E-01   0.00000000000000E+00   0.00000000000000E+00
      3.25966515272577E-12   3.95659105404305E-15   3.26362174377981E-12   1.19071002779454E-17   3.00000000000000E-01
      3.00000000000000E-01   0.00000000000000E+00   0.00000000000000E+00   0.00000000000000E+00   0.00000000000000E+00
      0.00000000000000E+00   5.19316499717159E-17
      2.90000000000000E-01
      0.00000000000000E+00   0.00000000000000E+00   0.00000000000000E+00   0.00000000000000E+00  -2.21505079817575E-13
     -2.87722413050882E-12  -3.09872921032640E-12  -1.30816676399494E-17   1.16000000000000E-01   1.16000000000000E-01
      0.00000000000000E+00   0.00000000000000E+00   0.00000000000000E+00   0.00000000000000E+00   0.00000000000000E+00
     -4.96639716267261E-17   1.60000000000000E-01   1.60000000000000E-01   0.00000000000000E+00   0.00000000000000E+00
      3.09479903001395E-12   3.93018031244854E-15   3.09872921032640E-12   1.18633538983057E-17   3.00000000000000E-01
      3.00000000000000E-01   0.00000000000000E+00   0.00000000000000E+00   0.00000000000000E+00   0.00000000000000E+00
      0.00000000000000E+00   5.08822853683698E-17
      3.00000000000000E-01
      0.00000000000000E+00   0.00000000000000E+00   0.00000000000000E+00   0.00000000000000E+00  -2.22822987434275E-13
     -2.72536512862335E-12  -2.94818811605762E-12  -1.31249681073764E-17   1.20000000000000E-01   1.20000000000000E-01
      0.00000000000000E+00   0.00000000000000E+00   0.00000000000000E+00   0.00000000000000E+00   0.00000000000000E+00
     -4.85275436475638E-17   1.60000000000000E-01   1.60000000000000E-01   0.00000000000000E+00   0.00000000000000E+00
      2.94428430480142E-12   3.90381125620275E-15   2.94818811605762E-12   1.18195865803736E-17   3.00000000000000E-01
      3.00000000000000E-01   0.00000000000000E+00   0.00000000000000E+00   0.00000000000000E+00   0.00000000000000E+00
      0.00000000000000E+00   4.98329251745666E-17
      3.10000000000000E-01
      0.00000000000000E+00   0.00000000000000E+00   0.00000000000000E+00   0.00000000000000E+00  -2.24142709321043E-13
     -2.58653405650414E-12  -2.81067676582518E-12  -1.31682566793433E-17   1.24000000000000E-01   1.24000000000000E-01
      0.00000000000000E+00   0.00000000000000E+00   0.00000000000000E+00   0.00000000000000E+00   0.00000000000000E+00
     -4.73911109325636E-17   1.60000000000000E-01   1.60000000000000E-01   0.00000000000000E+00   0.00000000000000E+00
      2.80679928141310E-12   3.87748441208535E-15   2.81067676582518E-12   1.17757978941875E-17   3.00000000000000E-01
      3.00000000000000E-01   0.00000000000000E+00   0.00000000000000E+00   0.00000000000000E+00   0.00000000000000E+00
      0.00000000000000E+00   4.87835697177194E-17
      3.20000000000000E-01
      0.00000000000000E+00   0.00000000000000E+00   0.00000000000000E+00   0.00000000000000E+00  -2.25464227019249E-13
     -2.45953151664730E-12  -2.68499574366655E-12  -1.32115335759634E-17   1.28000000000000E-01   1.28000000000000E-01
      0.00000000000000E+00   0.00000000000000E+00   0.00000000000000E+00   0.00000000000000E+00   0.00000000000000E+00
     -4.62546731516915E-17   1.60000000000000E-01   1.60000000000000E-01   0.00000000000000E+00   0.00000000000000E+00
      2.68114454330705E-12   3.85120035949337E-15   2.68499574366655E-12   1.17319873998233E-17   3.00000000000000E-01
      3.00000000000000E-01   0.00000000000000E+00   0.00000000000000E+00   0.00000000000000E+00   0.00000000000000E+00
      0.00000000000000E+00   4.77342193278316E-17
      3.30000000000000E-01
      0.00000000000000E+00   0.00000000000000E+00   0.00000000000000E+00   0.00000000000000E+00  -2.26787522156492E-13
     -2.34327111203158E-12  -2.57005863418807E-12  -1.32547990126781E-17   1.32000000000000E-01   1.32000000000000E-01
      0.00000000000000E+00   0.00000000000000E+00   0.00000000000000E+00   0.00000000000000E+00   0.00000000000000E+00
     -4.51182299721395E-17   1.60000000000000E-01   1.60000000000000E-01   0.00000000000000E+00   0.00000000000000E+00
      2.56623367445554E-12   3.82495973252516E-15   2.57005863418807E-12   1.16881546471370E-17   3.00000000000000E-01
      3.00000000000000E-01   0.00000000000000E+00   0.00000000000000E+00   0.00000000000000E+00   0.00000000000000E+00
      0.00000000000000E+00   4.66848743376805E-17
      3.40000000000000E-01
      0.00000000000000E+00   0.00000000000000E+00   0.00000000000000E+00   0.00000000000000E+00  -2.28112576456610E-13
     -2.23677074813604E-12  -2.46488332459265E-12  -1.32980532003652E-17   1.36000000000000E-01   1.36000000000000E-01
      0.00000000000000E+00   0.00000000000000E+00   0.00000000000000E+00   0.00000000000000E+00   0.00000000000000E+00
     -4.39817810581398E-17   1.60000000000000E-01   1.60000000000000E-01   0.00000000000000E+00   0.00000000000000E+00
      2.46108456137391E-12   3.79876321874067E-15   2.46488332459265E-12   1.16442991755015E-17   3.00000000000000E-01
      3.00000000000000E-01   0.00000000000000E+00   0.00000000000000E+00   0.00000000000000E+00   0.00000000000000E+00
      0.00000000000000E+00   4.56355350830035E-17
      3.50000000000000E-01
      0.00000000000000E+00   0.00000000000000E+00   0.00000000000000E+00   0.00000000000000E+00  -2.29439371750793E-13
     -2.13914449767265E-12  -2.36858386942344E-12  -1.33412963454456E-17   1.40000000000000E-01   1.40000000000000E-01
      0.00000000000000E+00   0.00000000000000E+00   0.00000000000000E+00   0.00000000000000E+00   0.00000000000000E+00
     -4.28453260707757E-17   1.60000000000000E-01   1.60000000000000E-01   0.00000000000000E+00   0.00000000000000E+00
      2.36481125786935E-12   3.77261155408811E-15   2.36858386942344E-12   1.16004205135356E-17   3.00000000000000E-01
      3.00000000000000E-01   0.00000000000000E+00   0.00000000000000E+00   0.00000000000000E+00   0.00000000000000E+00
      0.00000000000000E+00   4.45862019026857E-17
      3.60000000000000E-01
      0.00000000000000E+00   0.00000000000000E+00   0.00000000000000E+00   0.00000000000000E+00  -2.30767889982235E-13
     -2.04959501002675E-12  -2.28036290000899E-12  -1.33845286499870E-17   1.44000000000000E-01   1.44000000000000E-01
      0.00000000000000E+00   0.00000000000000E+00   0.00000000000000E+00   0.00000000000000E+00   0.00000000000000E+00
     -4.17088646677900E-17   1.60000000000000E-01   1.60000000000000E-01   0.00000000000000E+00   0.00000000000000E+00
      2.27661639448769E-12   3.74650552129157E-15   2.28036290000898E-12   1.15565181788259E-17   3.00000000000000E-01
      3.00000000000000E-01   0.00000000000000E+00   0.00000000000000E+00   0.00000000000000E+00   0.00000000000000E+00
      0.00000000000000E+00   4.35368751389511E-17
      3.70000000000000E-01
      0.00000000000000E+00   0.00000000000000E+00   0.00000000000000E+00   0.00000000000000E+00  -2.32098113213743E-13