DF-ISE text

Info {
  version   = 1.0
  type      = xyplot
  datasets  = [
    "time"
    "source OuterVoltage" "source InnerVoltage" "source QuasiFermiPotential" "source DisplacementCurrent" "source eCurrent"
    "source hCurrent" "source TotalCurrent" "source Charge" "topGate OuterVoltage" "topGate InnerVoltage"
    "topGate QuasiFermiPotential" "topGate DisplacementCurrent" "topGate eCurrent" "topGate hCurrent" "topGate TotalCurrent"
    "topGate Charge" "drain OuterVoltage" "drain InnerVoltage" "drain QuasiFermiPotential" "drain DisplacementCurrent"
    "drain eCurrent" "drain hCurrent" "drain TotalCurrent" "drain Charge" "bottomGate OuterVoltage"
    "bottomGate InnerVoltage" "bottomGate QuasiFermiPotential" "bottomGate DisplacementCurrent" "bottomGate eCurrent" "bottomGate hCurrent"
    "bottomGate TotalCurrent" "bottomGate Charge" ]
  functions = [
    Time
    OuterVoltage InnerVoltage QuasiFermiPotential DisplacementCurrent eCurrent
    hCurrent TotalCurrent Charge OuterVoltage InnerVoltage
    QuasiFermiPotential DisplacementCurrent eCurrent hCurrent TotalCurrent
    Charge OuterVoltage InnerVoltage QuasiFermiPotential DisplacementCurrent
    eCurrent hCurrent TotalCurrent Charge OuterVoltage
    InnerVoltage QuasiFermiPotential DisplacementCurrent eCurrent hCurrent
    TotalCurrent Charge ]
}

Data {
      1.00000000000000E-02
      0.00000000000000E+00   0.00000000000000E+00   0.00000000000000E+00   0.00000000000000E+00  -1.52254982029599E-13
     -5.74739495517724E-11  -5.76262045338020E-11  -1.06504776522836E-17   4.00000000000000E-03   4.00000000000000E-03
      0.00000000000000E+00   0.00000000000000E+00   0.00000000000000E+00   0.00000000000000E+00   0.00000000000000E+00
     -5.38082636056690E-17   2.70000000000000E-01   2.70000000000000E-01   0.00000000000000E+00   0.00000000000000E+00
      5.76191449934660E-11   7.05954033606705E-15   5.76262045338020E-11   1.66278514021881E-17   1.90000000000000E-01
      1.90000000000000E-01   0.00000000000000E+00   0.00000000000000E+00   0.00000000000000E+00   0.00000000000000E+00
      0.00000000000000E+00   4.78308898557646E-17
      2.00000000000000E-02
      0.00000000000000E+00   0.00000000000000E+00   0.00000000000000E+00   0.00000000000000E+00  -1.53435305371585E-13
     -5.31031571117027E-11  -5.32565924170743E-11  -1.06949900912214E-17   8.00000000000000E-03   8.00000000000000E-03
      0.00000000000000E+00   0.00000000000000E+00   0.00000000000000E+00   0.00000000000000E+00   0.00000000000000E+00
     -5.26717216722373E-17   2.70000000000000E-01   2.70000000000000E-01   0.00000000000000E+00   0.00000000000000E+00
      5.32495586317952E-11   7.03378527907222E-15   5.32565924170743E-11   1.65850684172857E-17   1.90000000000000E-01
      1.90000000000000E-01   0.00000000000000E+00   0.00000000000000E+00   0.00000000000000E+00   0.00000000000000E+00
      0.00000000000000E+00   4.67816433461731E-17
      3.00000000000000E-02
      0.00000000000000E+00   0.00000000000000E+00   0.00000000000000E+00   0.00000000000000E+00  -1.54618915066185E-13
     -4.90343294183324E-11  -4.91889483333986E-11  -1.07394661866560E-17   1.20000000000000E-02   1.20000000000000E-02
      0.00000000000000E+00   0.00000000000000E+00   0.00000000000000E+00   0.00000000000000E+00   0.00000000000000E+00
     -5.15351964985422E-17   2.70000000000000E-01   2.70000000000000E-01   0.00000000000000E+00   0.00000000000000E+00
      4.91819406249150E-11   7.00770848356016E-15   4.91889483333986E-11   1.65422825858029E-17   1.90000000000000E-01
      1.90000000000000E-01   0.00000000000000E+00   0.00000000000000E+00   0.00000000000000E+00   0.00000000000000E+00
      0.00000000000000E+00   4.57323800993954E-17
      4.00000000000000E-02
      0.00000000000000E+00   0.00000000000000E+00   0.00000000000000E+00   0.00000000000000E+00  -1.55805782171901E-13
     -4.52492788394839E-11  -4.54050846216558E-11  -1.07839067096076E-17   1.60000000000000E-02   1.60000000000000E-02
      0.00000000000000E+00   0.00000000000000E+00   0.00000000000000E+00   0.00000000000000E+00   0.00000000000000E+00
     -5.03986876653159E-17   2.70000000000000E-01   2.70000000000000E-01   0.00000000000000E+00   0.00000000000000E+00
      4.53981032848312E-11   6.98133682459962E-15   4.54050846216558E-11   1.64994938421554E-17   1.90000000000000E-01
      1.90000000000000E-01   0.00000000000000E+00   0.00000000000000E+00   0.00000000000000E+00   0.00000000000000E+00
      0.00000000000000E+00   4.46831005327681E-17
      5.00000000000000E-02
      0.00000000000000E+00   0.00000000000000E+00   0.00000000000000E+00   0.00000000000000E+00  -1.56995877461898E-13
     -4.17307232405950E-11  -4.18877191180569E-11  -1.08283124132268E-17   2.00000000000000E-02   2.00000000000000E-02
      0.00000000000000E+00   0.00000000000000E+00   0.00000000000000E+00   0.00000000000000E+00   0.00000000000000E+00
     -4.92621947626221E-17   2.70000000000000E-01   2.70000000000000E-01   0.00000000000000E+00   0.00000000000000E+00
      4.18807644230056E-11   6.95469505126527E-15   4.18877191180569E-11   1.64567021213898E-17   1.90000000000000E-01
      1.90000000000000E-01   0.00000000000000E+00   0.00000000000000E+00   0.00000000000000E+00   0.00000000000000E+00
      0.00000000000000E+00   4.36338050544592E-17
      6.00000000000000E-02
      0.00000000000000E+00   0.00000000000000E+00   0.00000000000000E+00   0.00000000000000E+00  -1.58189171479605E-13
     -3.84622524547000E-11  -3.86204416261796E-11  -1.08726840332234E-17   2.40000000000000E-02   2.40000000000000E-02
      0.00000000000000E+00   0.00000000000000E+00   0.00000000000000E+00   0.00000000000000E+00   0.00000000000000E+00
     -4.81257173895708E-17   2.70000000000000E-01   2.70000000000000E-01   0.00000000000000E+00   0.00000000000000E+00
      3.86135138201637E-11   6.92780601597475E-15   3.86204416261796E-11   1.64139073590542E-17   1.90000000000000E-01
      1.90000000000000E-01   0.00000000000000E+00   0.00000000000000E+00   0.00000000000000E+00   0.00000000000000E+00
      0.00000000000000E+00   4.25844940637401E-17
      7.00000000000000E-02
      0.00000000000000E+00   0.00000000000000E+00   0.00000000000000E+00   0.00000000000000E+00  -1.59385634588929E-13
     -3.54282954285521E-11  -3.55876810631410E-11  -1.09170222882856E-17   2.80000000000000E-02   2.80000000000000E-02
      0.00000000000000E+00   0.00000000000000E+00   0.00000000000000E+00   0.00000000000000E+00   0.00000000000000E+00
     -4.69892551540407E-17   2.70000000000000E-01   2.70000000000000E-01   0.00000000000000E+00   0.00000000000000E+00
      3.55807803723044E-11   6.90069083659178E-15   3.55876810631410E-11   1.63711094910766E-17   1.90000000000000E-01
      1.90000000000000E-01   0.00000000000000E+00   0.00000000000000E+00   0.00000000000000E+00   0.00000000000000E+00
      0.00000000000000E+00   4.15351679512498E-17
      8.00000000000000E-02
      0.00000000000000E+00   0.00000000000000E+00   0.00000000000000E+00   0.00000000000000E+00  -1.60585237019582E-13
     -3.26140880521205E-11  -3.27746732891401E-11  -1.09613278804884E-17   3.20000000000000E-02   3.20000000000000E-02
      0.00000000000000E+00   0.00000000000000E+00   0.00000000000000E+00   0.00000000000000E+00   0.00000000000000E+00
     -4.58528076724131E-17   2.70000000000000E-01   2.70000000000000E-01   0.00000000000000E+00   0.00000000000000E+00
      3.27677999202316E-11   6.87336890845912E-15   3.27746732891400E-11   1.63283084536510E-17   1.90000000000000E-01
      1.90000000000000E-01   0.00000000000000E+00   0.00000000000000E+00   0.00000000000000E+00   0.00000000000000E+00
      0.00000000000000E+00   4.04858270992505E-17
      9.00000000000000E-02
      0.00000000000000E+00   0.00000000000000E+00   0.00000000000000E+00   0.00000000000000E+00  -1.61787948907974E-13
     -3.00056416786080E-11  -3.01674296275160E-11  -1.10056014956935E-17   3.60000000000000E-02   3.60000000000000E-02
      0.00000000000000E+00   0.00000000000000E+00   0.00000000000000E+00   0.00000000000000E+00   0.00000000000000E+00
     -4.47163745693129E-17   2.70000000000000E-01   2.70000000000000E-01   0.00000000000000E+00   0.00000000000000E+00
      3.01605837694292E-11   6.84585808680902E-15   3.01674296275160E-11   1.62855041831311E-17   1.90000000000000E-01
      1.90000000000000E-01   0.00000000000000E+00   0.00000000000000E+00   0.00000000000000E+00   0.00000000000000E+00
      0.00000000000000E+00   3.94364718818752E-17
      1.00000000000000E-01
      0.00000000000000E+00   0.00000000000000E+00   0.00000000000000E+00   0.00000000000000E+00  -1.62993740334122E-13
     -2.75897123412375E-11  -2.77527060815716E-11  -1.10498438039388E-17   4.00000000000000E-02   4.00000000000000E-02
      0.00000000000000E+00   0.00000000000000E+00   0.00000000000000E+00   0.00000000000000E+00   0.00000000000000E+00
     -4.35799554773592E-17   2.70000000000000E-01   2.70000000000000E-01   0.00000000000000E+00   0.00000000000000E+00
      2.77458879065840E-11   6.81817498754169E-15   2.77527060815716E-11   1.62426966159298E-17   1.90000000000000E-01
      1.90000000000000E-01   0.00000000000000E+00   0.00000000000000E+00   0.00000000000000E+00   0.00000000000000E+00
      0.00000000000000E+00   3.83871026653683E-17
      1.10000000000000E-01
      0.00000000000000E+00   0.00000000000000E+00   0.00000000000000E+00   0.00000000000000E+00  -1.64202581354911E-13
     -2.53537706718312E-11  -2.55179732531861E-11  -1.10940554598199E-17   4.40000000000000E-02   4.40000000000000E-02
      0.00000000000000E+00   0.00000000000000E+00   0.00000000000000E+00   0.00000000000000E+00   0.00000000000000E+00
     -4.24435500369234E-17   2.70000000000000E-01   2.70000000000000E-01   0.00000000000000E+00   0.00000000000000E+00
      2.55111829185130E-11   6.79033467316001E-15   2.55179732531861E-11   1.61998856884252E-17   1.90000000000000E-01
      1.90000000000000E-01   0.00000000000000E+00   0.00000000000000E+00   0.00000000000000E+00   0.00000000000000E+00
      0.00000000000000E+00   3.73377198083182E-17
      1.20000000000000E-01
      0.00000000000000E+00   0.00000000000000E+00   0.00000000000000E+00   0.00000000000000E+00  -1.65414442034094E-13
     -2.32859725278224E-11  -2.34513869698565E-11  -1.11382371028611E-17   4.80000000000000E-02   4.80000000000000E-02
      0.00000000000000E+00   0.00000000000000E+00   0.00000000000000E+00   0.00000000000000E+00   0.00000000000000E+00
     -4.13071578958944E-17   2.70000000000000E-01   2.70000000000000E-01   0.00000000000000E+00   0.00000000000000E+00
      2.34446246186685E-11   6.76235118792780E-15   2.34513869698565E-11   1.61570713368716E-17   1.90000000000000E-01
      1.90000000000000E-01   0.00000000000000E+00   0.00000000000000E+00   0.00000000000000E+00   0.00000000000000E+00
      0.00000000000000E+00   3.62883236618839E-17
      1.30000000000000E-01
      0.00000000000000E+00   0.00000000000000E+00   0.00000000000000E+00   0.00000000000000E+00  -1.66629292469300E-13
     -2.13751303307078E-11  -2.15417596231771E-11  -1.11823893578789E-17   5.20000000000000E-02   5.20000000000000E-02
      0.00000000000000E+00   0.00000000000000E+00   0.00000000000000E+00   0.00000000000000E+00   0.00000000000000E+00
     -4.01707787094518E-17   2.70000000000000E-01   2.70000000000000E-01   0.00000000000000E+00   0.00000000000000E+00
      2.15350253858065E-11   6.73423737058869E-15   2.15417596231771E-11   1.61142534973160E-17   1.90000000000000E-01
      1.90000000000000E-01   0.00000000000000E+00   0.00000000000000E+00   0.00000000000000E+00   0.00000000000000E+00
      0.00000000000000E+00   3.52389145700147E-17
      1.40000000000000E-01
      0.00000000000000E+00   0.00000000000000E+00   0.00000000000000E+00   0.00000000000000E+00  -1.67847102816380E-13
     -1.96106851211457E-11  -1.97785322239621E-11  -1.12265128353362E-17   5.60000000000000E-02   5.60000000000000E-02
      0.00000000000000E+00   0.00000000000000E+00   0.00000000000000E+00   0.00000000000000E+00   0.00000000000000E+00
     -3.90344121398457E-17   2.70000000000000E-01   2.70000000000000E-01   0.00000000000000E+00   0.00000000000000E+00
      1.97718262187682E-11   6.70600519388948E-15   1.97785322239621E-11   1.60714321055182E-17   1.90000000000000E-01
      1.90000000000000E-01   0.00000000000000E+00   0.00000000000000E+00   0.00000000000000E+00   0.00000000000000E+00
      0.00000000000000E+00   3.41894928696636E-17
      1.50000000000000E-01
      0.00000000000000E+00   0.00000000000000E+00   0.00000000000000E+00   0.00000000000000E+00  -1.69067843311275E-13
     -1.79826793329109E-11  -1.81517471762222E-11  -1.12706081316880E-17   6.00000000000000E-02   6.00000000000000E-02
      0.00000000000000E+00   0.00000000000000E+00   0.00000000000000E+00   0.00000000000000E+00   0.00000000000000E+00
     -3.78980578561828E-17   2.70000000000000E-01   2.70000000000000E-01   0.00000000000000E+00   0.00000000000000E+00
      1.81450695106951E-11   6.67766552704100E-15   1.81517471762222E-11   1.60286070968761E-17   1.90000000000000E-01
      1.90000000000000E-01   0.00000000000000E+00   0.00000000000000E+00   0.00000000000000E+00   0.00000000000000E+00
      0.00000000000000E+00   3.31400588909947E-17
      1.60000000000000E-01
      0.00000000000000E+00   0.00000000000000E+00   0.00000000000000E+00   0.00000000000000E+00  -1.70291484289730E-13
     -1.64817302895123E-11  -1.66520217738020E-11  -1.13146758297193E-17   6.40000000000000E-02   6.40000000000000E-02
      0.00000000000000E+00   0.00000000000000E+00   0.00000000000000E+00   0.00000000000000E+00   0.00000000000000E+00
     -3.67617155342192E-17   2.70000000000000E-01   2.70000000000000E-01   0.00000000000000E+00   0.00000000000000E+00
      1.66453725453336E-11   6.64922846836686E-15   1.66520217738020E-11   1.59857784063535E-17   1.90000000000000E-01
      1.90000000000000E-01   0.00000000000000E+00   0.00000000000000E+00   0.00000000000000E+00   0.00000000000000E+00
      0.00000000000000E+00   3.20906129575850E-17
      1.70000000000000E-01
      0.00000000000000E+00   0.00000000000000E+00   0.00000000000000E+00   0.00000000000000E+00  -1.71517996204960E-13
     -1.50990044245407E-11  -1.52705224207457E-11  -1.13587164988744E-17   6.80000000000000E-02   6.80000000000000E-02
      0.00000000000000E+00   0.00000000000000E+00   0.00000000000000E+00   0.00000000000000E+00   0.00000000000000E+00
     -3.56253848561588E-17   2.70000000000000E-01   2.70000000000000E-01   0.00000000000000E+00   0.00000000000000E+00
      1.52639017174154E-11   6.62070333025809E-15   1.52705224207457E-11   1.59429459684127E-17   1.90000000000000E-01
      1.90000000000000E-01   0.00000000000000E+00   0.00000000000000E+00   0.00000000000000E+00   0.00000000000000E+00
      0.00000000000000E+00   3.10411553866205E-17
      1.80000000000000E-01
      0.00000000000000E+00   0.00000000000000E+00   0.00000000000000E+00   0.00000000000000E+00  -1.72747349643536E-13
     -1.38261922274261E-11  -1.39989395770697E-11  -1.14027306955786E-17   7.20000000000000E-02   7.20000000000000E-02
      0.00000000000000E+00   0.00000000000000E+00   0.00000000000000E+00   0.00000000000000E+00   0.00000000000000E+00
     -3.44890655104577E-17   2.70000000000000E-01   2.70000000000000E-01   0.00000000000000E+00   0.00000000000000E+00
      1.39923474784169E-11   6.59209865275613E-15   1.39989395770697E-11   1.59001097169489E-17   1.90000000000000E-01
      1.90000000000000E-01   0.00000000000000E+00   0.00000000000000E+00   0.00000000000000E+00   0.00000000000000E+00
      0.00000000000000E+00   2.99916864890874E-17
      1.90000000000000E-01
      0.00000000000000E+00   0.00000000000000E+00   0.00000000000000E+00   0.00000000000000E+00  -1.73979515339616E-13
     -1.26554839153068E-11  -1.28294634306464E-11  -1.14467189635521E-17   7.60000000000000E-02   7.60000000000000E-02
      0.00000000000000E+00   0.00000000000000E+00   0.00000000000000E+00   0.00000000000000E+00   0.00000000000000E+00
     -3.33527571916336E-17   2.70000000000000E-01   2.70000000000000E-01   0.00000000000000E+00   0.00000000000000E+00
      1.28229000083113E-11   6.56342233513409E-15   1.28294634306464E-11   1.58572695852279E-17   1.90000000000000E-01
      1.90000000000000E-01   0.00000000000000E+00   0.00000000000000E+00   0.00000000000000E+00   0.00000000000000E+00
      0.00000000000000E+00   2.89422065699578E-17
      2.00000000000000E-01
      0.00000000000000E+00   0.00000000000000E+00   0.00000000000000E+00   0.00000000000000E+00  -1.75214464187699E-13
     -1.15795458306866E-11  -1.17547602948743E-11  -1.14906818341160E-17   8.00000000000000E-02   8.00000000000000E-02
      0.00000000000000E+00   0.00000000000000E+00   0.00000000000000E+00   0.00000000000000E+00   0.00000000000000E+00
     -3.22164596000811E-17   2.70000000000000E-01   2.70000000000000E-01   0.00000000000000E+00   0.00000000000000E+00
      1.17482256132290E-11   6.53468164534463E-15   1.17547602948743E-11   1.58144255058265E-17   1.90000000000000E-01
      1.90000000000000E-01   0.00000000000000E+00   0.00000000000000E+00   0.00000000000000E+00   0.00000000000000E+00
      0.00000000000000E+00   2.78927159283706E-17
      2.10000000000000E-01
      0.00000000000000E+00   0.00000000000000E+00   0.00000000000000E+00   0.00000000000000E+00  -1.76452167254025E-13
     -1.05914975643233E-11  -1.07679497315773E-11  -1.15346198264917E-17   8.40000000000000E-02   8.40000000000000E-02
      0.00000000000000E+00   0.00000000000000E+00   0.00000000000000E+00   0.00000000000000E+00   0.00000000000000E+00
     -3.10801724418916E-17   2.70000000000000E-01   2.70000000000000E-01   0.00000000000000E+00   0.00000000000000E+00
      1.07614438482478E-11   6.50588332956520E-15   1.07679497315773E-11   1.57715774105749E-17   1.90000000000000E-01
      1.90000000000000E-01   0.00000000000000E+00   0.00000000000000E+00   0.00000000000000E+00   0.00000000000000E+00
      0.00000000000000E+00   2.68432148578084E-17
      2.20000000000000E-01
      0.00000000000000E+00   0.00000000000000E+00   0.00000000000000E+00   0.00000000000000E+00  -1.77692595786746E-13
     -9.68488980161812E-12  -9.86258239740486E-12  -1.15785334480922E-17   8.80000000000000E-02   8.80000000000000E-02
      0.00000000000000E+00   0.00000000000000E+00   0.00000000000000E+00   0.00000000000000E+00   0.00000000000000E+00
     -2.99438954286776E-17   2.70000000000000E-01   2.70000000000000E-01   0.00000000000000E+00   0.00000000000000E+00
      9.85610536383666E-12   6.47703356819491E-15   9.86258239740486E-12   1.57287252305010E-17   1.90000000000000E-01
      1.90000000000000E-01   0.00000000000000E+00   0.00000000000000E+00   0.00000000000000E+00   0.00000000000000E+00
      0.00000000000000E+00   2.57937036462688E-17
      2.30000000000000E-01
      0.00000000000000E+00   0.00000000000000E+00   0.00000000000000E+00   0.00000000000000E+00  -1.78935721225007E-13
     -8.85368289064030E-12  -9.03261861186531E-12  -1.16224231948065E-17   9.20000000000000E-02   9.20000000000000E-02
      0.00000000000000E+00   0.00000000000000E+00   0.00000000000000E+00   0.00000000000000E+00   0.00000000000000E+00
     -2.88076282774027E-17   2.70000000000000E-01   2.70000000000000E-01   0.00000000000000E+00   0.00000000000000E+00
      9.02617047378779E-12   6.44813807752023E-15   9.03261861186531E-12   1.56858688957770E-17   1.90000000000000E-01
      1.90000000000000E-01   0.00000000000000E+00   0.00000000000000E+00   0.00000000000000E+00   0.00000000000000E+00
      0.00000000000000E+00   2.47441825764322E-17
      2.40000000000000E-01
      0.00000000000000E+00   0.00000000000000E+00   0.00000000000000E+00   0.00000000000000E+00  -1.80181515206995E-13
     -8.09222612867692E-12  -8.27240764388392E-12  -1.16662895512777E-17   9.60000000000000E-02   9.60000000000000E-02
      0.00000000000000E+00   0.00000000000000E+00   0.00000000000000E+00   0.00000000000000E+00   0.00000000000000E+00
     -2.76713707102145E-17   2.70000000000000E-01   2.70000000000000E-01   0.00000000000000E+00   0.00000000000000E+00
      8.26598844179112E-12   6.41920209278917E-15   8.27240764388391E-12   1.56430083356666E-17   1.90000000000000E-01
      1.90000000000000E-01   0.00000000000000E+00   0.00000000000000E+00   0.00000000000000E+00   0.00000000000000E+00
      0.00000000000000E+00   2.36946519258256E-17
      2.50000000000000E-01
      0.00000000000000E+00   0.00000000000000E+00   0.00000000000000E+00   0.00000000000000E+00  -1.81429949577109E-13
     -7.39523776408960E-12  -7.57666771366671E-12  -1.17101329911739E-17   1.00000000000000E-01   1.00000000000000E-01
      0.00000000000000E+00   0.00000000000000E+00   0.00000000000000E+00   0.00000000000000E+00   0.00000000000000E+00
     -2.65351224542831E-17   2.70000000000000E-01   2.70000000000000E-01   0.00000000000000E+00   0.00000000000000E+00
      7.57027748313450E-12   6.39023053221555E-15   7.57666771366671E-12   1.56001434784752E-17   1.90000000000000E-01
      1.90000000000000E-01   0.00000000000000E+00   0.00000000000000E+00   0.00000000000000E+00   0.00000000000000E+00
      0.00000000000000E+00   2.26451119669817E-17
      2.60000000000000E-01
      0.00000000000000E+00   0.00000000000000E+00   0.00000000000000E+00   0.00000000000000E+00  -1.82680996392263E-13
     -6.75778570884220E-12  -6.94046670523446E-12  -1.17539539774518E-17   1.04000000000000E-01   1.04000000000000E-01
      0.00000000000000E+00   0.00000000000000E+00   0.00000000000000E+00   0.00000000000000E+00   0.00000000000000E+00
     -2.53988832416426E-17   2.70000000000000E-01   2.70000000000000E-01   0.00000000000000E+00   0.00000000000000E+00
      6.93410547736122E-12   6.36122787325119E-15   6.94046670523447E-12   1.55572742514996E-17   1.90000000000000E-01
      1.90000000000000E-01   0.00000000000000E+00   0.00000000000000E+00   0.00000000000000E+00   0.00000000000000E+00
      0.00000000000000E+00   2.15955629675949E-17
      2.70000000000000E-01
      0.00000000000000E+00   0.00000000000000E+00   0.00000000000000E+00   0.00000000000000E+00  -1.83934627927473E-13
     -6.17526895744623E-12  -6.35920358537370E-12  -1.17977529626156E-17   1.08000000000000E-01   1.08000000000000E-01
      0.00000000000000E+00   0.00000000000000E+00   0.00000000000000E+00   0.00000000000000E+00   0.00000000000000E+00
     -2.42626528090373E-17   2.70000000000000E-01   2.70000000000000E-01   0.00000000000000E+00   0.00000000000000E+00
      6.35287138708149E-12   6.33219829220665E-15   6.35920358537370E-12   1.55144005809800E-17   1.90000000000000E-01
      1.90000000000000E-01   0.00000000000000E+00   0.00000000000000E+00   0.00000000000000E+00   0.00000000000000E+00
      0.00000000000000E+00   2.05460051906729E-17
      2.80000000000000E-01
      0.00000000000000E+00   0.00000000000000E+00   0.00000000000000E+00   0.00000000000000E+00  -1.85190816680732E-13
     -5.64339970646950E-12  -5.82859052315023E-12  -1.18415303889677E-17   1.12000000000000E-01   1.12000000000000E-01
      0.00000000000000E+00   0.00000000000000E+00   0.00000000000000E+00   0.00000000000000E+00   0.00000000000000E+00
     -2.31264308977707E-17   2.70000000000000E-01   2.70000000000000E-01   0.00000000000000E+00   0.00000000000000E+00
      5.82228737752344E-12   6.30314562678013E-15   5.82859052315022E-12   1.54715223920526E-17   1.90000000000000E-01
      1.90000000000000E-01   0.00000000000000E+00   0.00000000000000E+00   0.00000000000000E+00   0.00000000000000E+00
      0.00000000000000E+00   1.94964388946858E-17
      2.90000000000000E-01
      0.00000000000000E+00   0.00000000000000E+00   0.00000000000000E+00   0.00000000000000E+00  -1.86449535377286E-13
     -5.15818616889877E-12  -5.34463570427606E-12  -1.18852866888545E-17   1.16000000000000E-01   1.16000000000000E-01
      0.00000000000000E+00   0.00000000000000E+00   0.00000000000000E+00   0.00000000000000E+00   0.00000000000000E+00
     -2.19902172535589E-17   2.70000000000000E-01   2.70000000000000E-01   0.00000000000000E+00   0.00000000000000E+00
      5.33836163082400E-12   6.27407345206568E-15   5.34463570427607E-12   1.54286396087027E-17   1.90000000000000E-01
      1.90000000000000E-01   0.00000000000000E+00   0.00000000000000E+00   0.00000000000000E+00   0.00000000000000E+00
      0.00000000000000E+00   1.84468643337108E-17
      3.00000000000000E-01
      0.00000000000000E+00   0.00000000000000E+00   0.00000000000000E+00   0.00000000000000E+00  -1.87710756973327E-13
     -4.71591607659318E-12  -4.90362683356651E-12  -1.19290222849057E-17   1.20000000000000E-01   1.20000000000000E-01
      0.00000000000000E+00   0.00000000000000E+00   0.00000000000000E+00   0.00000000000000E+00   0.00000000000000E+00
     -2.08540116263872E-17   2.70000000000000E-01   2.70000000000000E-01   0.00000000000000E+00   0.00000000000000E+00
      4.89738184850496E-12   6.24498506154129E-15   4.90362683356650E-12   1.53857521537188E-17   1.90000000000000E-01
      1.90000000000000E-01   0.00000000000000E+00   0.00000000000000E+00   0.00000000000000E+00   0.00000000000000E+00
      0.00000000000000E+00   1.73972817575741E-17
      3.10000000000000E-01
      0.00000000000000E+00   0.00000000000000E+00   0.00000000000000E+00   0.00000000000000E+00  -1.88974454659190E-13
     -4.31314086391569E-12  -4.50211531857488E-12  -1.19727375902679E-17   1.24000000000000E-01   1.24000000000000E-01
      0.00000000000000E+00   0.00000000000000E+00   0.00000000000000E+00   0.00000000000000E+00   0.00000000000000E+00
     -1.97178137703692E-17   2.70000000000000E-01   2.70000000000000E-01   0.00000000000000E+00   0.00000000000000E+00
      4.49589943505545E-12   6.21588351943159E-15   4.50211531857488E-12   1.53428599486473E-17   1.90000000000000E-01
      1.90000000000000E-01   0.00000000000000E+00   0.00000000000000E+00   0.00000000000000E+00   0.00000000000000E+00
      0.00000000000000E+00   1.63476914119898E-17
      3.20000000000000E-01
      0.00000000000000E+00   0.00000000000000E+00   0.00000000000000E+00   0.00000000000000E+00  -1.90240601862069E-13
     -3.94666052485173E-12  -4.13690112671380E-12  -1.20164330088321E-17   1.28000000000000E-01   1.28000000000000E-01
      0.00000000000000E+00   0.00000000000000E+00   0.00000000000000E+00   0.00000000000000E+00   0.00000000000000E+00
     -1.85816234436104E-17   2.70000000000000E-01   2.70000000000000E-01   0.00000000000000E+00   0.00000000000000E+00
      4.13071435505570E-12   6.18677165810424E-15   4.13690112671380E-12   1.52999629137473E-17   1.90000000000000E-01
      1.90000000000000E-01   0.00000000000000E+00   0.00000000000000E+00   0.00000000000000E+00   0.00000000000000E+00
      0.00000000000000E+00   1.52980935386952E-17
      3.30000000000000E-01
      0.00000000000000E+00   0.00000000000000E+00   0.00000000000000E+00   0.00000000000000E+00  -1.91509172248324E-13
     -3.61350913569399E-12  -3.80501830794232E-12  -1.20601089354563E-17   1.32000000000000E-01   1.32000000000000E-01
      0.00000000000000E+00   0.00000000000000E+00   0.00000000000000E+00   0.00000000000000E+00   0.00000000000000E+00
     -1.74454404080738E-17   2.70000000000000E-01   2.70000000000000E-01   0.00000000000000E+00   0.00000000000000E+00
      3.79886065582778E-12   6.15765211454219E-15   3.80501830794232E-12   1.52570609679458E-17   1.90000000000000E-01
      1.90000000000000E-01   0.00000000000000E+00   0.00000000000000E+00   0.00000000000000E+00   0.00000000000000E+00
      0.00000000000000E+00   1.42484883755843E-17
      3.40000000000000E-01
      0.00000000000000E+00   0.00000000000000E+00   0.00000000000000E+00   0.00000000000000E+00  -1.92780139725386E-13
     -3.31094103480510E-12  -3.50372117453049E-12  -1.21037657561817E-17   1.36000000000000E-01   1.36000000000000E-01
      0.00000000000000E+00   0.00000000000000E+00   0.00000000000000E+00   0.00000000000000E+00   0.00000000000000E+00
     -1.63092644294486E-17   2.70000000000000E-01   2.70000000000000E-01   0.00000000000000E+00   0.00000000000000E+00
      3.49759264719170E-12   6.12852733878612E-15   3.50372117453049E-12   1.52141540287933E-17   1.90000000000000E-01
      1.90000000000000E-01   0.00000000000000E+00   0.00000000000000E+00   0.00000000000000E+00   0.00000000000000E+00
      0.00000000000000E+00   1.31988761568370E-17
      3.50000000000000E-01
      0.00000000000000E+00   0.00000000000000E+00   0.00000000000000E+00   0.00000000000000E+00  -1.94053478443322E-13
     -3.03641765070283E-12  -3.23047112914615E-12  -1.21474038484447E-17   1.40000000000000E-01   1.40000000000000E-01
      0.00000000000000E+00   0.00000000000000E+00   0.00000000000000E+00   0.00000000000000E+00   0.00000000000000E+00
     -1.51730952770219E-17   2.70000000000000E-01   2.70000000000000E-01   0.00000000000000E+00   0.00000000000000E+00
      3.22437172954124E-12   6.09939960490899E-15   3.23047112914615E-12   1.51712420124197E-17   1.90000000000000E-01
      1.90000000000000E-01   0.00000000000000E+00   0.00000000000000E+00   0.00000000000000E+00   0.00000000000000E+00
      0.00000000000000E+00   1.21492571130470E-17
      3.60000000000000E-01
      0.00000000000000E+00   0.00000000000000E+00   0.00000000000000E+00   0.00000000000000E+00  -1.95329162796076E-13
     -2.78759496937802E-12  -2.98292413217410E-12  -1.21910235812826E-17   1.44000000000000E-01   1.44000000000000E-01
      0.00000000000000E+00   0.00000000000000E+00   0.00000000000000E+00   0.00000000000000E+00   0.00000000000000E+00
     -1.40369327235531E-17   2.70000000000000E-01   2.70000000000000E-01   0.00000000000000E+00   0.00000000000000E+00
      2.97685386113626E-12   6.07027103783843E-15   2.98292413217410E-12   1.51283248334894E-17   1.90000000000000E-01
      1.90000000000000E-01   0.00000000000000E+00   0.00000000000000E+00   0.00000000000000E+00   0.00000000000000E+00
      0.00000000000000E+00   1.10996314713462E-17
      3.70000000000000E-01
      0.00000000000000E+00   0.00000000000000E+00   0.00000000000000E+00   0.00000000000000E+00  -1.96607167422416E-13