DF-ISE text

Info {
  version   = 1.0
  type      = xyplot
  datasets  = [
    "time"
    "source OuterVoltage" "source InnerVoltage" "source QuasiFermiPotential" "source DisplacementCurrent" "source eCurrent"
    "source hCurrent" "source TotalCurrent" "source Charge" "topGate OuterVoltage" "topGate InnerVoltage"
    "topGate QuasiFermiPotential" "topGate DisplacementCurrent" "topGate eCurrent" "topGate hCurrent" "topGate TotalCurrent"
    "topGate Charge" "drain OuterVoltage" "drain InnerVoltage" "drain QuasiFermiPotential" "drain DisplacementCurrent"
    "drain eCurrent" "drain hCurrent" "drain TotalCurrent" "drain Charge" "bottomGate OuterVoltage"
    "bottomGate InnerVoltage" "bottomGate QuasiFermiPotential" "bottomGate DisplacementCurrent" "bottomGate eCurrent" "bottomGate hCurrent"
    "bottomGate TotalCurrent" "bottomGate Charge" ]
  functions = [
    Time
    OuterVoltage InnerVoltage QuasiFermiPotential DisplacementCurrent eCurrent
    hCurrent TotalCurrent Charge OuterVoltage InnerVoltage
    QuasiFermiPotential DisplacementCurrent eCurrent hCurrent TotalCurrent
    Charge OuterVoltage InnerVoltage QuasiFermiPotential DisplacementCurrent
    eCurrent hCurrent TotalCurrent Charge OuterVoltage
    InnerVoltage QuasiFermiPotential DisplacementCurrent eCurrent hCurrent
    TotalCurrent Charge ]
}

Data {
      1.00000000000000E-02
      0.00000000000000E+00   0.00000000000000E+00   0.00000000000000E+00   0.00000000000000E+00  -1.70283046393498E-13
     -1.75843451642314E-10  -1.76013734688708E-10  -1.13147037509575E-17   4.00000000000000E-03   4.00000000000000E-03
      0.00000000000000E+00   0.00000000000000E+00   0.00000000000000E+00   0.00000000000000E+00   0.00000000000000E+00
     -7.01902386592748E-17   3.30000000000000E-01   3.30000000000000E-01   0.00000000000000E+00   0.00000000000000E+00
      1.76006354334433E-10   7.38035427423541E-15   1.76013734688708E-10   1.72692059379995E-17   2.50000000000000E-01
      2.50000000000000E-01   0.00000000000000E+00   0.00000000000000E+00   0.00000000000000E+00   0.00000000000000E+00
      0.00000000000000E+00   6.42357364722328E-17
      2.00000000000000E-02
      0.00000000000000E+00   0.00000000000000E+00   0.00000000000000E+00   0.00000000000000E+00  -1.71510888092596E-13
     -1.63994914500232E-10  -1.64166425388325E-10  -1.13587444347339E-17   8.00000000000000E-03   8.00000000000000E-03
      0.00000000000000E+00   0.00000000000000E+00   0.00000000000000E+00   0.00000000000000E+00   0.00000000000000E+00
     -6.90539543063738E-17   3.30000000000000E-01   3.30000000000000E-01   0.00000000000000E+00   0.00000000000000E+00
      1.64159060653413E-10   7.36473491131920E-15   1.64166425388325E-10   1.72264662461191E-17   2.50000000000000E-01
      2.50000000000000E-01   0.00000000000000E+00   0.00000000000000E+00   0.00000000000000E+00   0.00000000000000E+00
      0.00000000000000E+00   6.31862324949885E-17
      3.00000000000000E-02
      0.00000000000000E+00   0.00000000000000E+00   0.00000000000000E+00   0.00000000000000E+00  -1.72741448009503E-13
     -1.52856244606019E-10  -1.53028986054029E-10  -1.14027586444299E-17   1.20000000000000E-02   1.20000000000000E-02
      0.00000000000000E+00   0.00000000000000E+00   0.00000000000000E+00   0.00000000000000E+00   0.00000000000000E+00
     -6.79176820056715E-17   3.30000000000000E-01   3.30000000000000E-01   0.00000000000000E+00   0.00000000000000E+00
      1.53021638069299E-10   7.34798472975208E-15   1.53028986054028E-10   1.71837241727287E-17   2.50000000000000E-01
      2.50000000000000E-01   0.00000000000000E+00   0.00000000000000E+00   0.00000000000000E+00   0.00000000000000E+00
      0.00000000000000E+00   6.21367164773727E-17
      4.00000000000000E-02
      0.00000000000000E+00   0.00000000000000E+00   0.00000000000000E+00   0.00000000000000E+00  -1.73974708590703E-13
     -1.42391150687333E-10  -1.42565125395924E-10  -1.14467469238828E-17   1.60000000000000E-02   1.60000000000000E-02
      0.00000000000000E+00   0.00000000000000E+00   0.00000000000000E+00   0.00000000000000E+00   0.00000000000000E+00
     -6.67814214628741E-17   3.30000000000000E-01   3.30000000000000E-01   0.00000000000000E+00   0.00000000000000E+00
      1.42557795204096E-10   7.33019182780698E-15   1.42565125395924E-10   1.71409796740211E-17   2.50000000000000E-01
      2.50000000000000E-01   0.00000000000000E+00   0.00000000000000E+00   0.00000000000000E+00   0.00000000000000E+00
      0.00000000000000E+00   6.10871887127357E-17
      5.00000000000000E-02
      0.00000000000000E+00   0.00000000000000E+00   0.00000000000000E+00   0.00000000000000E+00  -1.75210651343561E-13
     -1.32564827452271E-10  -1.32740038103614E-10  -1.14907098045240E-17   2.00000000000000E-02   2.00000000000000E-02
      0.00000000000000E+00   0.00000000000000E+00   0.00000000000000E+00   0.00000000000000E+00   0.00000000000000E+00
     -6.56451723899123E-17   3.30000000000000E-01   3.30000000000000E-01   0.00000000000000E+00   0.00000000000000E+00
      1.32732726665872E-10   7.31143774167627E-15   1.32740038103614E-10   1.70982327061587E-17   2.50000000000000E-01
      2.50000000000000E-01   0.00000000000000E+00   0.00000000000000E+00   0.00000000000000E+00   0.00000000000000E+00
      0.00000000000000E+00   6.00376494882776E-17
      6.00000000000000E-02
      0.00000000000000E+00   0.00000000000000E+00   0.00000000000000E+00   0.00000000000000E+00  -1.76449256949546E-13
     -1.23343912939268E-10  -1.23520362196217E-10  -1.15346478056788E-17   2.40000000000000E-02   2.40000000000000E-02
      0.00000000000000E+00   0.00000000000000E+00   0.00000000000000E+00   0.00000000000000E+00   0.00000000000000E+00
     -6.45089345047607E-17   3.30000000000000E-01   3.30000000000000E-01   0.00000000000000E+00   0.00000000000000E+00
      1.23513070398196E-10   7.29179802174771E-15   1.23520362196218E-10   1.70554832252170E-17   2.50000000000000E-01
      2.50000000000000E-01   0.00000000000000E+00   0.00000000000000E+00   0.00000000000000E+00   0.00000000000000E+00
      0.00000000000000E+00   5.89880990852225E-17
      7.00000000000000E-02
      0.00000000000000E+00   0.00000000000000E+00   0.00000000000000E+00   0.00000000000000E+00  -1.77690505366987E-13
     -1.14696446403001E-10  -1.14874136908368E-10  -1.15785614348575E-17   2.80000000000000E-02   2.80000000000000E-02
      0.00000000000000E+00   0.00000000000000E+00   0.00000000000000E+00   0.00000000000000E+00   0.00000000000000E+00
     -6.33727075312630E-17   3.30000000000000E-01   3.30000000000000E-01   0.00000000000000E+00   0.00000000000000E+00
      1.14866865565829E-10   7.27134253887771E-15   1.14874136908368E-10   1.70127311871319E-17   2.50000000000000E-01
      2.50000000000000E-01   0.00000000000000E+00   0.00000000000000E+00   0.00000000000000E+00   0.00000000000000E+00
      0.00000000000000E+00   5.79385377789886E-17
      8.00000000000000E-02
      0.00000000000000E+00   0.00000000000000E+00   0.00000000000000E+00   0.00000000000000E+00  -1.78934375924250E-13
     -1.06591826746678E-10  -1.06770761122603E-10  -1.16224511880413E-17   3.20000000000000E-02   3.20000000000000E-02
      0.00000000000000E+00   0.00000000000000E+00   0.00000000000000E+00   0.00000000000000E+00   0.00000000000000E+00
     -6.22364911989620E-17   3.30000000000000E-01   3.30000000000000E-01   0.00000000000000E+00   0.00000000000000E+00
      1.06763510986685E-10   7.25013591731898E-15   1.06770761122603E-10   1.69699765476499E-17   2.50000000000000E-01
      2.50000000000000E-01   0.00000000000000E+00   0.00000000000000E+00   0.00000000000000E+00   0.00000000000000E+00
      0.00000000000000E+00   5.68889658393535E-17
      9.00000000000000E-02
      0.00000000000000E+00   0.00000000000000E+00   0.00000000000000E+00   0.00000000000000E+00  -1.80180847404283E-13
     -9.90007715107611E-11  -9.91809523581654E-11  -1.16663175499594E-17   3.60000000000000E-02   3.60000000000000E-02
      0.00000000000000E+00   0.00000000000000E+00   0.00000000000000E+00   0.00000000000000E+00   0.00000000000000E+00
     -6.11002852429345E-17   3.30000000000000E-01   3.30000000000000E-01   0.00000000000000E+00   0.00000000000000E+00
      9.91737241202261E-11   7.22823793918763E-15   9.91809523581653E-11   1.69272192622802E-17   2.50000000000000E-01
      2.50000000000000E-01   0.00000000000000E+00   0.00000000000000E+00   0.00000000000000E+00   0.00000000000000E+00
      0.00000000000000E+00   5.58393835306137E-17
      1.00000000000000E-01
      0.00000000000000E+00   0.00000000000000E+00   0.00000000000000E+00   0.00000000000000E+00  -1.81429898121228E-13
     -9.18952764283224E-11  -9.20767063264436E-11  -1.17101609943609E-17   4.00000000000000E-02   4.00000000000000E-02
      0.00000000000000E+00   0.00000000000000E+00   0.00000000000000E+00   0.00000000000000E+00   0.00000000000000E+00
     -5.99640894036308E-17   3.30000000000000E-01   3.30000000000000E-01   0.00000000000000E+00   0.00000000000000E+00
      9.20695006225587E-11   7.20570388498218E-15   9.20767063264437E-11   1.68844592862502E-17   2.50000000000000E-01
      2.50000000000000E-01   0.00000000000000E+00   0.00000000000000E+00   0.00000000000000E+00   0.00000000000000E+00
      0.00000000000000E+00   5.47897911117416E-17
      1.10000000000000E-01
      0.00000000000000E+00   0.00000000000000E+00   0.00000000000000E+00   0.00000000000000E+00  -1.82681505989828E-13
     -8.52485755573843E-11  -8.54312570633742E-11  -1.17539819842789E-17   4.40000000000000E-02   4.40000000000000E-02
      0.00000000000000E+00   0.00000000000000E+00   0.00000000000000E+00   0.00000000000000E+00   0.00000000000000E+00
     -5.88279034267198E-17   3.30000000000000E-01   3.30000000000000E-01   0.00000000000000E+00   0.00000000000000E+00
      8.54240744785536E-11   7.18258482067181E-15   8.54312570633743E-11   1.68416965744621E-17   2.50000000000000E-01
      2.50000000000000E-01   0.00000000000000E+00   0.00000000000000E+00   0.00000000000000E+00   0.00000000000000E+00
      0.00000000000000E+00   5.37401888365366E-17
      1.20000000000000E-01
      0.00000000000000E+00   0.00000000000000E+00   0.00000000000000E+00   0.00000000000000E+00  -1.83935648588343E-13
     -7.90351020006279E-11  -7.92190376492162E-11  -1.17977809722888E-17   4.80000000000000E-02   4.80000000000000E-02
      0.00000000000000E+00   0.00000000000000E+00   0.00000000000000E+00   0.00000000000000E+00   0.00000000000000E+00
     -5.76917270629368E-17   3.30000000000000E-01   3.30000000000000E-01   0.00000000000000E+00   0.00000000000000E+00
      7.92118787212906E-11   7.15892792582130E-15   7.92190376492164E-11   1.67989310814522E-17   2.50000000000000E-01
      2.50000000000000E-01   0.00000000000000E+00   0.00000000000000E+00   0.00000000000000E+00   0.00000000000000E+00
      0.00000000000000E+00   5.26905769537734E-17
      1.30000000000000E-01
      0.00000000000000E+00   0.00000000000000E+00   0.00000000000000E+00   0.00000000000000E+00  -1.85192303215446E-13
     -7.32304492226938E-11  -7.34156415259093E-11  -1.18415584007602E-17   5.20000000000000E-02   5.20000000000000E-02
      0.00000000000000E+00   0.00000000000000E+00   0.00000000000000E+00   0.00000000000000E+00   0.00000000000000E+00
     -5.65555600679367E-17   3.30000000000000E-01   3.30000000000000E-01   0.00000000000000E+00   0.00000000000000E+00
      7.34085067491262E-11   7.13477678313650E-15   7.34156415259093E-11   1.67561627613515E-17   2.50000000000000E-01
      2.50000000000000E-01   0.00000000000000E+00   0.00000000000000E+00   0.00000000000000E+00   0.00000000000000E+00
      0.00000000000000E+00   5.16409557073454E-17
      1.40000000000000E-01
      0.00000000000000E+00   0.00000000000000E+00   0.00000000000000E+00   0.00000000000000E+00  -1.86451446941754E-13
     -6.78113329752505E-11  -6.79977844221923E-11  -1.18853147021023E-17   5.60000000000000E-02   5.60000000000000E-02
      0.00000000000000E+00   0.00000000000000E+00   0.00000000000000E+00   0.00000000000000E+00   0.00000000000000E+00
     -5.54194022021512E-17   3.30000000000000E-01   3.30000000000000E-01   0.00000000000000E+00   0.00000000000000E+00
      6.79906742505622E-11   7.11017163018966E-15   6.79977844221924E-11   1.67133915678481E-17   2.50000000000000E-01
      2.50000000000000E-01   0.00000000000000E+00   0.00000000000000E+00   0.00000000000000E+00   0.00000000000000E+00
      0.00000000000000E+00   5.05913253364055E-17
      1.50000000000000E-01
      0.00000000000000E+00   0.00000000000000E+00   0.00000000000000E+00   0.00000000000000E+00  -1.87713056656393E-13
     -6.27555538399430E-11  -6.29432668965994E-11  -1.19290502990040E-17   6.00000000000000E-02   6.00000000000000E-02
      0.00000000000000E+00   0.00000000000000E+00   0.00000000000000E+00   0.00000000000000E+00   0.00000000000000E+00
     -5.42832532306487E-17   3.30000000000000E-01   3.30000000000000E-01   0.00000000000000E+00   0.00000000000000E+00
      6.29361817469979E-11   7.08514960150844E-15   6.29432668965994E-11   1.66706174541508E-17   2.50000000000000E-01
      2.50000000000000E-01   0.00000000000000E+00   0.00000000000000E+00   0.00000000000000E+00   0.00000000000000E+00
      0.00000000000000E+00   4.95416860755018E-17
      1.60000000000000E-01
      0.00000000000000E+00   0.00000000000000E+00   0.00000000000000E+00   0.00000000000000E+00  -1.88977109109098E-13
     -5.80419603991522E-11  -5.82309375082613E-11  -1.19727656046668E-17   6.40000000000000E-02   6.40000000000000E-02
      0.00000000000000E+00   0.00000000000000E+00   0.00000000000000E+00   0.00000000000000E+00   0.00000000000000E+00
     -5.31471129229994E-17   3.30000000000000E-01   3.30000000000000E-01   0.00000000000000E+00   0.00000000000000E+00
      5.82238777632784E-11   7.05974498292047E-15   5.82309375082613E-11   1.66278403729545E-17   2.50000000000000E-01
      2.50000000000000E-01   0.00000000000000E+00   0.00000000000000E+00   0.00000000000000E+00   0.00000000000000E+00
      0.00000000000000E+00   4.84920381547116E-17
      1.70000000000000E-01
      0.00000000000000E+00   0.00000000000000E+00   0.00000000000000E+00   0.00000000000000E+00  -1.90243580948246E-13
     -5.36504130441631E-11  -5.38406566251113E-11  -1.20164610230337E-17   6.80000000000000E-02   6.80000000000000E-02
      0.00000000000000E+00   0.00000000000000E+00   0.00000000000000E+00   0.00000000000000E+00   0.00000000000000E+00
     -5.20109810531426E-17   3.30000000000000E-01   3.30000000000000E-01   0.00000000000000E+00   0.00000000000000E+00
      5.38336226357369E-11   7.03398937443783E-15   5.38406566251114E-11   1.65850602764059E-17   2.50000000000000E-01
      2.50000000000000E-01   0.00000000000000E+00   0.00000000000000E+00   0.00000000000000E+00   0.00000000000000E+00
      0.00000000000000E+00   4.74423817997704E-17
      1.80000000000000E-01
      0.00000000000000E+00   0.00000000000000E+00   0.00000000000000E+00   0.00000000000000E+00  -1.91512448755170E-13
     -4.95617484304255E-11  -4.97532608791807E-11  -1.20601369490109E-17   7.20000000000000E-02   7.20000000000000E-02
      0.00000000000000E+00   0.00000000000000E+00   0.00000000000000E+00   0.00000000000000E+00   0.00000000000000E+00
     -5.08748573992587E-17   3.30000000000000E-01   3.30000000000000E-01   0.00000000000000E+00   0.00000000000000E+00
      4.97462529672041E-11   7.00791197662640E-15   4.97532608791807E-11   1.65422771160711E-17   2.50000000000000E-01
      2.50000000000000E-01   0.00000000000000E+00   0.00000000000000E+00   0.00000000000000E+00   0.00000000000000E+00
      0.00000000000000E+00   4.63927172321986E-17
      1.90000000000000E-01
      0.00000000000000E+00   0.00000000000000E+00   0.00000000000000E+00   0.00000000000000E+00  -1.92783689075073E-13
     -4.57577445887627E-11  -4.59505282778378E-11  -1.21037937686852E-17   7.60000000000000E-02   7.60000000000000E-02
      0.00000000000000E+00   0.00000000000000E+00   0.00000000000000E+00   0.00000000000000E+00   0.00000000000000E+00
     -4.97387417436433E-17   3.30000000000000E-01   3.30000000000000E-01   0.00000000000000E+00   0.00000000000000E+00
      4.59435467381808E-11   6.98153965703821E-15   4.59505282778378E-11   1.64994908429034E-17   2.50000000000000E-01
      2.50000000000000E-01   0.00000000000000E+00   0.00000000000000E+00   0.00000000000000E+00   0.00000000000000E+00
      0.00000000000000E+00   4.53430446694250E-17
      2.00000000000000E-01
      0.00000000000000E+00   0.00000000000000E+00   0.00000000000000E+00   0.00000000000000E+00  -1.94057278444956E-13
     -4.22210867018391E-11  -4.24151439802840E-11  -1.21474318595351E-17   8.00000000000000E-02   8.00000000000000E-02
      0.00000000000000E+00   0.00000000000000E+00   0.00000000000000E+00   0.00000000000000E+00   0.00000000000000E+00
     -4.86026338725850E-17   3.30000000000000E-01   3.30000000000000E-01   0.00000000000000E+00   0.00000000000000E+00
      4.24081890830498E-11   6.95489723418428E-15   4.24151439802840E-11   1.64567014072125E-17   2.50000000000000E-01
      2.50000000000000E-01   0.00000000000000E+00   0.00000000000000E+00   0.00000000000000E+00   0.00000000000000E+00
      0.00000000000000E+00   4.42933643249076E-17
      2.10000000000000E-01
      0.00000000000000E+00   0.00000000000000E+00   0.00000000000000E+00   0.00000000000000E+00  -1.95333193418690E-13
     -3.89353335540224E-11  -3.91306667474411E-11  -1.21910515906376E-17   8.40000000000000E-02   8.40000000000000E-02
      0.00000000000000E+00   0.00000000000000E+00   0.00000000000000E+00   0.00000000000000E+00   0.00000000000000E+00
     -4.74665335762463E-17   3.30000000000000E-01   3.30000000000000E-01   0.00000000000000E+00   0.00000000000000E+00
      3.91237387398754E-11   6.92800756569704E-15   3.91306667474411E-11   1.64139087586338E-17   2.50000000000000E-01
      2.50000000000000E-01   0.00000000000000E+00   0.00000000000000E+00   0.00000000000000E+00   0.00000000000000E+00
      0.00000000000000E+00   4.32436764082501E-17
      2.20000000000000E-01
      0.00000000000000E+00   0.00000000000000E+00   0.00000000000000E+00   0.00000000000000E+00  -1.96611410589557E-13
     -3.58848846630862E-11  -3.60814960736757E-11  -1.22346533228689E-17   8.80000000000000E-02   8.80000000000000E-02
      0.00000000000000E+00   0.00000000000000E+00   0.00000000000000E+00   0.00000000000000E+00   0.00000000000000E+00
     -4.63304406485473E-17   3.30000000000000E-01   3.30000000000000E-01   0.00000000000000E+00   0.00000000000000E+00
      3.60745951819543E-11   6.90089172154325E-15   3.60814960736758E-11   1.63711128460986E-17   2.50000000000000E-01
      2.50000000000000E-01   0.00000000000000E+00   0.00000000000000E+00   0.00000000000000E+00   0.00000000000000E+00
      0.00000000000000E+00   4.21939811253176E-17
      2.30000000000000E-01
      0.00000000000000E+00   0.00000000000000E+00   0.00000000000000E+00   0.00000000000000E+00  -1.97891906610546E-13
     -3.30549481013932E-11  -3.32528400080037E-11  -1.22782374091014E-17   9.20000000000000E-02   9.20000000000000E-02
      0.00000000000000E+00   0.00000000000000E+00   0.00000000000000E+00   0.00000000000000E+00   0.00000000000000E+00
     -4.51943548870520E-17   3.30000000000000E-01   3.30000000000000E-01   0.00000000000000E+00   0.00000000000000E+00
      3.32459664388858E-11   6.87356911795362E-15   3.32528400080037E-11   1.63283136178052E-17   2.50000000000000E-01
      2.50000000000000E-01   0.00000000000000E+00   0.00000000000000E+00   0.00000000000000E+00   0.00000000000000E+00
      0.00000000000000E+00   4.11442786783483E-17
      2.40000000000000E-01
      0.00000000000000E+00   0.00000000000000E+00   0.00000000000000E+00   0.00000000000000E+00  -1.99174658212511E-13
     -3.04315090139397E-11  -3.06306836721522E-11  -1.23218041943944E-17   9.60000000000000E-02   9.60000000000000E-02
      0.00000000000000E+00   0.00000000000000E+00   0.00000000000000E+00   0.00000000000000E+00   0.00000000000000E+00
     -4.40582760928580E-17   3.30000000000000E-01   3.30000000000000E-01   0.00000000000000E+00   0.00000000000000E+00
      3.06238376145002E-11   6.84605765202407E-15   3.06306836721522E-11   1.62855110211894E-17   2.50000000000000E-01
      2.50000000000000E-01   0.00000000000000E+00   0.00000000000000E+00   0.00000000000000E+00   0.00000000000000E+00
      0.00000000000000E+00   4.00945692660629E-17
      2.50000000000000E-01
      0.00000000000000E+00   0.00000000000000E+00   0.00000000000000E+00   0.00000000000000E+00  -2.00459642220428E-13
     -2.80012988401230E-11  -2.82017584823434E-11  -1.23653540161812E-17   1.00000000000000E-01   1.00000000000000E-01
      0.00000000000000E+00   0.00000000000000E+00   0.00000000000000E+00   0.00000000000000E+00   0.00000000000000E+00
     -4.29222040704874E-17   3.30000000000000E-01   3.30000000000000E-01   0.00000000000000E+00   0.00000000000000E+00
      2.81949401085286E-11   6.81837381477429E-15   2.82017584823434E-11   1.62427050028967E-17   2.50000000000000E-01
      2.50000000000000E-01   0.00000000000000E+00   0.00000000000000E+00   0.00000000000000E+00   0.00000000000000E+00
      0.00000000000000E+00   3.90448530837719E-17
      2.60000000000000E-01
      0.00000000000000E+00   0.00000000000000E+00   0.00000000000000E+00   0.00000000000000E+00  -2.01746835567950E-13
     -2.57517652456434E-11  -2.59535120812114E-11  -1.24088872044512E-17   1.04000000000000E-01   1.04000000000000E-01
      0.00000000000000E+00   0.00000000000000E+00   0.00000000000000E+00   0.00000000000000E+00   0.00000000000000E+00
     -4.17861386277819E-17   3.30000000000000E-01   3.30000000000000E-01   0.00000000000000E+00   0.00000000000000E+00
      2.59467215484209E-11   6.79053279046049E-15   2.59535120812114E-11   1.61998955087535E-17   2.50000000000000E-01
      2.50000000000000E-01   0.00000000000000E+00   0.00000000000000E+00   0.00000000000000E+00   0.00000000000000E+00
      0.00000000000000E+00   3.79951303234796E-17
      2.70000000000000E-01
      0.00000000000000E+00   0.00000000000000E+00   0.00000000000000E+00   0.00000000000000E+00  -2.03036215310396E-13
     -2.36710427704919E-11  -2.38740789858022E-11  -1.24524040819273E-17   1.08000000000000E-01   1.08000000000000E-01
      0.00000000000000E+00   0.00000000000000E+00   0.00000000000000E+00   0.00000000000000E+00   0.00000000000000E+00
     -4.06500795757993E-17   3.30000000000000E-01   3.30000000000000E-01   0.00000000000000E+00   0.00000000000000E+00
      2.38673164372251E-11   6.76254857710842E-15   2.38740789858022E-11   1.61570824837396E-17   2.50000000000000E-01
      2.50000000000000E-01   0.00000000000000E+00   0.00000000000000E+00   0.00000000000000E+00   0.00000000000000E+00
      0.00000000000000E+00   3.69454011739870E-17
      2.80000000000000E-01
      0.00000000000000E+00   0.00000000000000E+00   0.00000000000000E+00   0.00000000000000E+00  -2.04327758636262E-13
     -2.17479241983509E-11  -2.19522519569871E-11  -1.24959049642391E-17   1.12000000000000E-01   1.12000000000000E-01
      0.00000000000000E+00   0.00000000000000E+00   0.00000000000000E+00   0.00000000000000E+00   0.00000000000000E+00
     -3.95140267287122E-17   3.30000000000000E-01   3.30000000000000E-01   0.00000000000000E+00   0.00000000000000E+00
      2.19455175229214E-11   6.73443406572803E-15   2.19522519569871E-11   1.61142658719600E-17   2.50000000000000E-01
      2.50000000000000E-01   0.00000000000000E+00   0.00000000000000E+00   0.00000000000000E+00   0.00000000000000E+00
      0.00000000000000E+00   3.58956658209914E-17
      2.90000000000000E-01
      0.00000000000000E+00   0.00000000000000E+00   0.00000000000000E+00   0.00000000000000E+00  -2.05621442877513E-13
     -1.99718326523393E-11  -2.01774540952168E-11  -1.25393901600919E-17   1.16000000000000E-01   1.16000000000000E-01
      0.00000000000000E+00   0.00000000000000E+00   0.00000000000000E+00   0.00000000000000E+00   0.00000000000000E+00
     -3.83779799037097E-17   3.30000000000000E-01   3.30000000000000E-01   0.00000000000000E+00   0.00000000000000E+00
      2.01707478940822E-11   6.70620113461634E-15   2.01774540952168E-11   1.60714456166173E-17   2.50000000000000E-01
      2.50000000000000E-01   0.00000000000000E+00   0.00000000000000E+00   0.00000000000000E+00   0.00000000000000E+00
      0.00000000000000E+00   3.48459244471844E-17
      3.00000000000000E-01
      0.00000000000000E+00   0.00000000000000E+00   0.00000000000000E+00   0.00000000000000E+00  -2.06917245518636E-13
     -1.83327944213889E-11  -1.85397116669075E-11  -1.25828599714313E-17   1.20000000000000E-01   1.20000000000000E-01
      0.00000000000000E+00   0.00000000000000E+00   0.00000000000000E+00   0.00000000000000E+00   0.00000000000000E+00
     -3.72419389209005E-17   3.30000000000000E-01   3.30000000000000E-01   0.00000000000000E+00   0.00000000000000E+00
      1.85330338061779E-11   6.67786072957278E-15   1.85397116669075E-11   1.60286216599843E-17   2.50000000000000E-01
      2.50000000000000E-01   0.00000000000000E+00   0.00000000000000E+00   0.00000000000000E+00   0.00000000000000E+00
      0.00000000000000E+00   3.37961772323475E-17
      3.10000000000000E-01
      0.00000000000000E+00   0.00000000000000E+00   0.00000000000000E+00   0.00000000000000E+00  -2.08215144204674E-13
     -1.68214125210325E-11  -1.70296276652372E-11  -1.26263146936038E-17   1.24000000000000E-01   1.24000000000000E-01
      0.00000000000000E+00   0.00000000000000E+00   0.00000000000000E+00   0.00000000000000E+00   0.00000000000000E+00
     -3.61059036032184E-17   3.30000000000000E-01   3.30000000000000E-01   0.00000000000000E+00   0.00000000000000E+00
      1.70229782423030E-11   6.64942293418278E-15   1.70296276652372E-11   1.59857939433760E-17   2.50000000000000E-01
      2.50000000000000E-01   0.00000000000000E+00   0.00000000000000E+00   0.00000000000000E+00   0.00000000000000E+00
      0.00000000000000E+00   3.27464243534462E-17
      3.20000000000000E-01
      0.00000000000000E+00   0.00000000000000E+00   0.00000000000000E+00   0.00000000000000E+00  -2.09515116748232E-13
     -1.54288409918216E-11  -1.56383561085699E-11  -1.26697546155136E-17   1.28000000000000E-01   1.28000000000000E-01
      0.00000000000000E+00   0.00000000000000E+00   0.00000000000000E+00   0.00000000000000E+00   0.00000000000000E+00
     -3.49698737763301E-17   3.30000000000000E-01   3.30000000000000E-01   0.00000000000000E+00   0.00000000000000E+00
      1.56317352115314E-11   6.62089703847357E-15   1.56383561085699E-11   1.59429624071221E-17   2.50000000000000E-01
      2.50000000000000E-01   0.00000000000000E+00   0.00000000000000E+00   0.00000000000000E+00   0.00000000000000E+00
      0.00000000000000E+00   3.16966659847216E-17
      3.30000000000000E-01
      0.00000000000000E+00   0.00000000000000E+00   0.00000000000000E+00   0.00000000000000E+00  -2.10817141135667E-13
     -1.41467599380235E-11  -1.43575770791592E-11  -1.27131800197751E-17   1.32000000000000E-01   1.32000000000000E-01
      0.00000000000000E+00   0.00000000000000E+00   0.00000000000000E+00   0.00000000000000E+00   0.00000000000000E+00
     -3.38338492685441E-17   3.30000000000000E-01   3.30000000000000E-01   0.00000000000000E+00   0.00000000000000E+00
      1.43509847875502E-11   6.59229160902984E-15   1.43575770791592E-11   1.59001269905391E-17   2.50000000000000E-01
      2.50000000000000E-01   0.00000000000000E+00   0.00000000000000E+00   0.00000000000000E+00   0.00000000000000E+00
      0.00000000000000E+00   3.06469022977800E-17
      3.40000000000000E-01
      0.00000000000000E+00   0.00000000000000E+00   0.00000000000000E+00   0.00000000000000E+00  -2.12121195532431E-13
     -1.29673513086556E-11  -1.31794725041880E-11  -1.27565911828623E-17   1.36000000000000E-01   1.36000000000000E-01
      0.00000000000000E+00   0.00000000000000E+00   0.00000000000000E+00   0.00000000000000E+00   0.00000000000000E+00
     -3.26978299107223E-17   3.30000000000000E-01   3.30000000000000E-01   0.00000000000000E+00   0.00000000000000E+00
      1.31729088896506E-11   6.56361453742821E-15   1.31794725041880E-11   1.58572876319025E-17   2.50000000000000E-01
      2.50000000000000E-01   0.00000000000000E+00   0.00000000000000E+00   0.00000000000000E+00   0.00000000000000E+00
      0.00000000000000E+00   2.95971334616820E-17
      3.50000000000000E-01
      0.00000000000000E+00   0.00000000000000E+00   0.00000000000000E+00   0.00000000000000E+00  -2.13427258287693E-13
     -1.18832754224090E-11  -1.20967026806967E-11  -1.27999883752534E-17   1.40000000000000E-01   1.40000000000000E-01
      0.00000000000000E+00   0.00000000000000E+00   0.00000000000000E+00   0.00000000000000E+00   0.00000000000000E+00
     -3.15618155361930E-17   3.30000000000000E-01   3.30000000000000E-01   0.00000000000000E+00   0.00000000000000E+00
      1.20901678075907E-11   6.53487310595278E-15   1.20967026806967E-11   1.58144442684185E-17   2.50000000000000E-01
      2.50000000000000E-01   0.00000000000000E+00   0.00000000000000E+00   0.00000000000000E+00   0.00000000000000E+00
      0.00000000000000E+00   2.85473596430278E-17
      3.60000000000000E-01
      0.00000000000000E+00   0.00000000000000E+00   0.00000000000000E+00   0.00000000000000E+00  -2.14735307938319E-13
     -1.08876482373675E-11  -1.11023835453059E-11  -1.28433718615732E-17   1.44000000000000E-01   1.44000000000000E-01
      0.00000000000000E+00   0.00000000000000E+00   0.00000000000000E+00   0.00000000000000E+00   0.00000000000000E+00
     -3.04258059806654E-17   3.30000000000000E-01   3.30000000000000E-01   0.00000000000000E+00   0.00000000000000E+00
      1.10958774712832E-11   6.50607402269725E-15   1.11023835453058E-11   1.57715968361958E-17   2.50000000000000E-01
      2.50000000000000E-01   0.00000000000000E+00   0.00000000000000E+00   0.00000000000000E+00   0.00000000000000E+00
      0.00000000000000E+00   2.74975810060428E-17
      3.70000000000000E-01
      0.00000000000000E+00   0.00000000000000E+00   0.00000000000000E+00   0.00000000000000E+00  -2.16045323212227E-13