DF-ISE text

Info {
  version   = 1.0
  type      = xyplot
  datasets  = [
    "time"
    "source OuterVoltage" "source InnerVoltage" "source QuasiFermiPotential" "source DisplacementCurrent" "source eCurrent"
    "source hCurrent" "source TotalCurrent" "source Charge" "topGate OuterVoltage" "topGate InnerVoltage"
    "topGate QuasiFermiPotential" "topGate DisplacementCurrent" "topGate eCurrent" "topGate hCurrent" "topGate TotalCurrent"
    "topGate Charge" "drain OuterVoltage" "drain InnerVoltage" "drain QuasiFermiPotential" "drain DisplacementCurrent"
    "drain eCurrent" "drain hCurrent" "drain TotalCurrent" "drain Charge" "bottomGate OuterVoltage"
    "bottomGate InnerVoltage" "bottomGate QuasiFermiPotential" "bottomGate DisplacementCurrent" "bottomGate eCurrent" "bottomGate hCurrent"
    "bottomGate TotalCurrent" "bottomGate Charge" ]
  functions = [
    Time
    OuterVoltage InnerVoltage QuasiFermiPotential DisplacementCurrent eCurrent
    hCurrent TotalCurrent Charge OuterVoltage InnerVoltage
    QuasiFermiPotential DisplacementCurrent eCurrent hCurrent TotalCurrent
    Charge OuterVoltage InnerVoltage QuasiFermiPotential DisplacementCurrent
    eCurrent hCurrent TotalCurrent Charge OuterVoltage
    InnerVoltage QuasiFermiPotential DisplacementCurrent eCurrent hCurrent
    TotalCurrent Charge ]
}

Data {
      1.00000000000000E-02
      0.00000000000000E+00   0.00000000000000E+00   0.00000000000000E+00   0.00000000000000E+00  -1.58190841418517E-13
     -3.23930720407111E-10  -3.24088911248530E-10  -1.08727357900776E-17   4.00000000000000E-03   4.00000000000000E-03
      0.00000000000000E+00   0.00000000000000E+00   0.00000000000000E+00   0.00000000000000E+00   0.00000000000000E+00
     -6.02295555290612E-17   3.80000000000000E-01   3.80000000000000E-01   0.00000000000000E+00   0.00000000000000E+00
      3.24083278497149E-10   5.63275138104024E-15   3.24088911248530E-10   1.87637525131840E-17   2.10000000000000E-01
      2.10000000000000E-01   0.00000000000000E+00   0.00000000000000E+00   0.00000000000000E+00   0.00000000000000E+00
      0.00000000000000E+00   5.23385388059549E-17
      2.00000000000000E-02
      0.00000000000000E+00   0.00000000000000E+00   0.00000000000000E+00   0.00000000000000E+00  -1.59387767730195E-13
     -3.04910054927608E-10  -3.05069442695338E-10  -1.09170740389682E-17   8.00000000000000E-03   8.00000000000000E-03
      0.00000000000000E+00   0.00000000000000E+00   0.00000000000000E+00   0.00000000000000E+00   0.00000000000000E+00
     -5.90931560420687E-17   3.80000000000000E-01   3.80000000000000E-01   0.00000000000000E+00   0.00000000000000E+00
      3.05063621860317E-10   5.82083502152096E-15   3.05069442695338E-10   1.87210802116086E-17   2.10000000000000E-01
      2.10000000000000E-01   0.00000000000000E+00   0.00000000000000E+00   0.00000000000000E+00   0.00000000000000E+00
      0.00000000000000E+00   5.12891498694282E-17
      3.00000000000000E-02
      0.00000000000000E+00   0.00000000000000E+00   0.00000000000000E+00   0.00000000000000E+00  -1.60587791013001E-13
     -2.86904836256642E-10  -2.87065424047655E-10  -1.09613796240347E-17   1.20000000000000E-02   1.20000000000000E-02
      0.00000000000000E+00   0.00000000000000E+00   0.00000000000000E+00   0.00000000000000E+00   0.00000000000000E+00
     -5.79567722236818E-17   3.80000000000000E-01   3.80000000000000E-01   0.00000000000000E+00   0.00000000000000E+00
      2.87059430338371E-10   5.99370928443546E-15   2.87065424047655E-10   1.86784065637748E-17   2.10000000000000E-01
      2.10000000000000E-01   0.00000000000000E+00   0.00000000000000E+00   0.00000000000000E+00   0.00000000000000E+00
      0.00000000000000E+00   5.02397452839417E-17
      4.00000000000000E-02
      0.00000000000000E+00   0.00000000000000E+00   0.00000000000000E+00   0.00000000000000E+00  -1.61790885603733E-13
     -2.69868450631515E-10  -2.70030241517118E-10  -1.10056532312214E-17   1.60000000000000E-02   1.60000000000000E-02
      0.00000000000000E+00   0.00000000000000E+00   0.00000000000000E+00   0.00000000000000E+00   0.00000000000000E+00
     -5.68204037126833E-17   3.80000000000000E-01   3.80000000000000E-01   0.00000000000000E+00   0.00000000000000E+00
      2.70024089149610E-10   6.15236750875678E-15   2.70030241517119E-10   1.86357315347792E-17   2.10000000000000E-01
      2.10000000000000E-01   0.00000000000000E+00   0.00000000000000E+00   0.00000000000000E+00   0.00000000000000E+00
      0.00000000000000E+00   4.91903254091255E-17
      5.00000000000000E-02
      0.00000000000000E+00   0.00000000000000E+00   0.00000000000000E+00   0.00000000000000E+00  -1.62997025372700E-13
     -2.53755999775288E-10  -2.53918996800661E-10  -1.10498955306441E-17   2.00000000000000E-02   2.00000000000000E-02
      0.00000000000000E+00   0.00000000000000E+00   0.00000000000000E+00   0.00000000000000E+00   0.00000000000000E+00
     -5.56840501562141E-17   3.80000000000000E-01   3.80000000000000E-01   0.00000000000000E+00   0.00000000000000E+00
      2.53912699056971E-10   6.29774368984535E-15   2.53918996800661E-10   1.85930550904795E-17   2.10000000000000E-01
      2.10000000000000E-01   0.00000000000000E+00   0.00000000000000E+00   0.00000000000000E+00   0.00000000000000E+00
      0.00000000000000E+00   4.81408905963787E-17
      6.00000000000000E-02
      0.00000000000000E+00   0.00000000000000E+00   0.00000000000000E+00   0.00000000000000E+00  -1.64206183796345E-13
     -2.38524257477814E-10  -2.38688463661610E-10  -1.10941071769719E-17   2.40000000000000E-02   2.40000000000000E-02
      0.00000000000000E+00   0.00000000000000E+00   0.00000000000000E+00   0.00000000000000E+00   0.00000000000000E+00
     -5.45477112095338E-17   3.80000000000000E-01   3.80000000000000E-01   0.00000000000000E+00   0.00000000000000E+00
      2.38682032946376E-10   6.43071523430265E-15   2.38688463661610E-10   1.85503771974070E-17   2.10000000000000E-01
      2.10000000000000E-01   0.00000000000000E+00   0.00000000000000E+00   0.00000000000000E+00   0.00000000000000E+00
      0.00000000000000E+00   4.70914411890987E-17
      7.00000000000000E-02
      0.00000000000000E+00   0.00000000000000E+00   0.00000000000000E+00   0.00000000000000E+00  -1.65418334022865E-13
     -2.24131626584240E-10  -2.24297044918263E-10  -1.11382888097986E-17   2.80000000000000E-02   2.80000000000000E-02
      0.00000000000000E+00   0.00000000000000E+00   0.00000000000000E+00   0.00000000000000E+00   0.00000000000000E+00
     -5.34113865357896E-17   3.80000000000000E-01   3.80000000000000E-01   0.00000000000000E+00   0.00000000000000E+00
      2.24290492811869E-10   6.55210639432364E-15   2.24297044918263E-10   1.85076978226852E-17   2.10000000000000E-01
      2.10000000000000E-01   0.00000000000000E+00   0.00000000000000E+00   0.00000000000000E+00   0.00000000000000E+00
      0.00000000000000E+00   4.60419775229029E-17
      8.00000000000000E-02
      0.00000000000000E+00   0.00000000000000E+00   0.00000000000000E+00   0.00000000000000E+00  -1.66633448931538E-13
     -2.10538096401601E-10  -2.10704729850532E-10  -1.11824410540062E-17   3.20000000000000E-02   3.20000000000000E-02
      0.00000000000000E+00   0.00000000000000E+00   0.00000000000000E+00   0.00000000000000E+00   0.00000000000000E+00
     -5.22750758057924E-17   3.80000000000000E-01   3.80000000000000E-01   0.00000000000000E+00   0.00000000000000E+00
      2.10698067159690E-10   6.66269084232364E-15   2.10704729850533E-10   1.84650169339547E-17   2.10000000000000E-01
      2.10000000000000E-01   0.00000000000000E+00   0.00000000000000E+00   0.00000000000000E+00   0.00000000000000E+00
      0.00000000000000E+00   4.49924999258439E-17
      9.00000000000000E-02
      0.00000000000000E+00   0.00000000000000E+00   0.00000000000000E+00   0.00000000000000E+00  -1.67851501186301E-13
     -1.97705200537160E-10  -1.97873052038346E-10  -1.12265645201192E-17   3.60000000000000E-02   3.60000000000000E-02
      0.00000000000000E+00   0.00000000000000E+00   0.00000000000000E+00   0.00000000000000E+00   0.00000000000000E+00
     -5.11387786978006E-17   3.80000000000000E-01   3.80000000000000E-01   0.00000000000000E+00   0.00000000000000E+00
      1.97866288843595E-10   6.76319475131795E-15   1.97873052038346E-10   1.84223344993022E-17   2.10000000000000E-01
      2.10000000000000E-01   0.00000000000000E+00   0.00000000000000E+00   0.00000000000000E+00   0.00000000000000E+00
      0.00000000000000E+00   4.39430087186176E-17
      1.00000000000000E-01
      0.00000000000000E+00   0.00000000000000E+00   0.00000000000000E+00   0.00000000000000E+00  -1.69072463284131E-13
     -1.85595975179589E-10  -1.85765047642873E-10  -1.12706598046510E-17   4.00000000000000E-02   4.00000000000000E-02
      0.00000000000000E+00   0.00000000000000E+00   0.00000000000000E+00   0.00000000000000E+00   0.00000000000000E+00
     -5.00024948973107E-17   3.80000000000000E-01   3.80000000000000E-01   0.00000000000000E+00   0.00000000000000E+00
      1.85758193343791E-10   6.85429908218370E-15   1.85765047642873E-10   1.83796504871960E-17   2.10000000000000E-01
      2.10000000000000E-01   0.00000000000000E+00   0.00000000000000E+00   0.00000000000000E+00   0.00000000000000E+00
      0.00000000000000E+00   4.28935042147656E-17
      1.10000000000000E-01
      0.00000000000000E+00   0.00000000000000E+00   0.00000000000000E+00   0.00000000000000E+00  -1.70296307598711E-13
     -1.74174917836902E-10  -1.74345214144501E-10  -1.13147274904412E-17   4.40000000000000E-02   4.40000000000000E-02
      0.00000000000000E+00   0.00000000000000E+00   0.00000000000000E+00   0.00000000000000E+00   0.00000000000000E+00
     -4.88662240968544E-17   3.80000000000000E-01   3.80000000000000E-01   0.00000000000000E+00   0.00000000000000E+00
      1.74338277501991E-10   6.93664250943113E-15   1.74345214144501E-10   1.83369648664244E-17   2.10000000000000E-01
      2.10000000000000E-01   0.00000000000000E+00   0.00000000000000E+00   0.00000000000000E+00   0.00000000000000E+00
      0.00000000000000E+00   4.18439867208713E-17
      1.20000000000000E-01
      0.00000000000000E+00   0.00000000000000E+00   0.00000000000000E+00   0.00000000000000E+00  -1.71523006419828E-13
     -1.63407946542033E-10  -1.63579469548453E-10  -1.13587681469857E-17   4.80000000000000E-02   4.80000000000000E-02
      0.00000000000000E+00   0.00000000000000E+00   0.00000000000000E+00   0.00000000000000E+00   0.00000000000000E+00
     -4.77299659958025E-17   3.80000000000000E-01   3.80000000000000E-01   0.00000000000000E+00   0.00000000000000E+00
      1.63572458725101E-10   7.01082335183286E-15   1.63579469548453E-10   1.82942776060387E-17   2.10000000000000E-01
      2.10000000000000E-01   0.00000000000000E+00   0.00000000000000E+00   0.00000000000000E+00   0.00000000000000E+00
      0.00000000000000E+00   4.07944565367495E-17
      1.30000000000000E-01
      0.00000000000000E+00   0.00000000000000E+00   0.00000000000000E+00   0.00000000000000E+00  -1.72752531988888E-13
     -1.53262359540425E-10  -1.53435112072414E-10  -1.14027823307583E-17   5.20000000000000E-02   5.20000000000000E-02
      0.00000000000000E+00   0.00000000000000E+00   0.00000000000000E+00   0.00000000000000E+00   0.00000000000000E+00
     -4.65937203001743E-17   3.80000000000000E-01   3.80000000000000E-01   0.00000000000000E+00   0.00000000000000E+00
      1.53428034670056E-10   7.07740235848536E-15   1.53435112072415E-10   1.82515886753007E-17   2.10000000000000E-01
      2.10000000000000E-01   0.00000000000000E+00   0.00000000000000E+00   0.00000000000000E+00   0.00000000000000E+00
      0.00000000000000E+00   3.97449139556319E-17
      1.40000000000000E-01
      0.00000000000000E+00   0.00000000000000E+00   0.00000000000000E+00   0.00000000000000E+00  -1.73984856530917E-13
     -1.43706795470210E-10  -1.43880780326741E-10  -1.14467705855246E-17   5.60000000000000E-02   5.60000000000000E-02
      0.00000000000000E+00   0.00000000000000E+00   0.00000000000000E+00   0.00000000000000E+00   0.00000000000000E+00
     -4.54574867224532E-17   3.80000000000000E-01   3.80000000000000E-01   0.00000000000000E+00   0.00000000000000E+00
      1.43873643422339E-10   7.13690440189919E-15   1.43880780326741E-10   1.82088980436322E-17   2.10000000000000E-01
      2.10000000000000E-01   0.00000000000000E+00   0.00000000000000E+00   0.00000000000000E+00   0.00000000000000E+00
      0.00000000000000E+00   3.86953592643456E-17
      1.50000000000000E-01
      0.00000000000000E+00   0.00000000000000E+00   0.00000000000000E+00   0.00000000000000E+00  -1.75219952283381E-13
     -1.34711194049147E-10  -1.34886414001431E-10  -1.14907334426487E-17   6.00000000000000E-02   6.00000000000000E-02
      0.00000000000000E+00   0.00000000000000E+00   0.00000000000000E+00   0.00000000000000E+00   0.00000000000000E+00
     -4.43212649814081E-17   3.80000000000000E-01   3.80000000000000E-01   0.00000000000000E+00   0.00000000000000E+00
      1.34879224180624E-10   7.18982080606803E-15   1.34886414001431E-10   1.81662056805689E-17   2.10000000000000E-01
      2.10000000000000E-01   0.00000000000000E+00   0.00000000000000E+00   0.00000000000000E+00   0.00000000000000E+00
      0.00000000000000E+00   3.76457927434879E-17
      1.60000000000000E-01
      0.00000000000000E+00   0.00000000000000E+00   0.00000000000000E+00   0.00000000000000E+00  -1.76457791522119E-13
     -1.26246757279593E-10  -1.26423215071115E-10  -1.15346714213920E-17   6.40000000000000E-02   6.40000000000000E-02
      0.00000000000000E+00   0.00000000000000E+00   0.00000000000000E+00   0.00000000000000E+00   0.00000000000000E+00
     -4.31850548019191E-17   3.80000000000000E-01   3.80000000000000E-01   0.00000000000000E+00   0.00000000000000E+00
      1.26415978459924E-10   7.23661119185849E-15   1.26423215071116E-10   1.81235115557163E-17   2.10000000000000E-01
      2.10000000000000E-01   0.00000000000000E+00   0.00000000000000E+00   0.00000000000000E+00   0.00000000000000E+00
      0.00000000000000E+00   3.65962146675948E-17
      1.70000000000000E-01
      0.00000000000000E+00   0.00000000000000E+00   0.00000000000000E+00   0.00000000000000E+00  -1.77698346584655E-13
     -1.18285911184321E-10  -1.18463609530905E-10  -1.15785850292049E-17   6.80000000000000E-02   6.80000000000000E-02
      0.00000000000000E+00   0.00000000000000E+00   0.00000000000000E+00   0.00000000000000E+00   0.00000000000000E+00
     -4.20488559148101E-17   3.80000000000000E-01   3.80000000000000E-01   0.00000000000000E+00   0.00000000000000E+00
      1.18456331825491E-10   7.27770541465326E-15   1.18463609530905E-10   1.80808156387089E-17   2.10000000000000E-01
      2.10000000000000E-01   0.00000000000000E+00   0.00000000000000E+00   0.00000000000000E+00   0.00000000000000E+00
      0.00000000000000E+00   3.55466253053060E-17
      1.80000000000000E-01
      0.00000000000000E+00   0.00000000000000E+00   0.00000000000000E+00   0.00000000000000E+00  -1.78941589891136E-13
     -1.10802268084949E-10  -1.10981209674840E-10  -1.16224747620121E-17   7.20000000000000E-02   7.20000000000000E-02
      0.00000000000000E+00   0.00000000000000E+00   0.00000000000000E+00   0.00000000000000E+00   0.00000000000000E+00
     -4.09126680566841E-17   3.80000000000000E-01   3.80000000000000E-01   0.00000000000000E+00   0.00000000000000E+00
      1.10973896169607E-10   7.31350523380077E-15   1.10981209674840E-10   1.80381178991715E-17   2.10000000000000E-01
      2.10000000000000E-01   0.00000000000000E+00   0.00000000000000E+00   0.00000000000000E+00   0.00000000000000E+00
      0.00000000000000E+00   3.44970249195247E-17
      1.90000000000000E-01
      0.00000000000000E+00   0.00000000000000E+00   0.00000000000000E+00   0.00000000000000E+00  -1.80187493963119E-13
     -1.03770589435234E-10  -1.03950776929197E-10  -1.16663411044894E-17   7.60000000000000E-02   7.60000000000000E-02
      0.00000000000000E+00   0.00000000000000E+00   0.00000000000000E+00   0.00000000000000E+00   0.00000000000000E+00
     -3.97764909697653E-17   3.80000000000000E-01   3.80000000000000E-01   0.00000000000000E+00   0.00000000000000E+00
      1.03943432543183E-10   7.34438601402547E-15   1.03950776929197E-10   1.79954183066823E-17   2.10000000000000E-01
      2.10000000000000E-01   0.00000000000000E+00   0.00000000000000E+00   0.00000000000000E+00   0.00000000000000E+00
      0.00000000000000E+00   3.34474137675724E-17
      2.00000000000000E-01
      0.00000000000000E+00   0.00000000000000E+00   0.00000000000000E+00   0.00000000000000E+00  -1.81436031440413E-13
     -9.71667492207979E-11  -9.73481852522383E-11  -1.17101845303358E-17   8.00000000000000E-02   8.00000000000000E-02
      0.00000000000000E+00   0.00000000000000E+00   0.00000000000000E+00   0.00000000000000E+00   0.00000000000000E+00
     -3.86403244017443E-17   3.80000000000000E-01   3.80000000000000E-01   0.00000000000000E+00   0.00000000000000E+00
      9.73408145539225E-11   7.37069831572714E-15   9.73481852522382E-11   1.79527168307392E-17   2.10000000000000E-01
      2.10000000000000E-01   0.00000000000000E+00   0.00000000000000E+00   0.00000000000000E+00   0.00000000000000E+00
      0.00000000000000E+00   3.23977921013408E-17
      2.10000000000000E-01
      0.00000000000000E+00   0.00000000000000E+00   0.00000000000000E+00   0.00000000000000E+00  -1.82687175096142E-13
     -9.09676979368182E-11  -9.11503851119143E-11  -1.17540055025370E-17   8.40000000000000E-02   8.40000000000000E-02
      0.00000000000000E+00   0.00000000000000E+00   0.00000000000000E+00   0.00000000000000E+00   0.00000000000000E+00
     -3.75041681056281E-17   3.80000000000000E-01   3.80000000000000E-01   0.00000000000000E+00   0.00000000000000E+00
      9.11429923425557E-11   7.39276935858544E-15   9.11503851119143E-11   1.79100134407266E-17   2.10000000000000E-01
      2.10000000000000E-01   0.00000000000000E+00   0.00000000000000E+00   0.00000000000000E+00   0.00000000000000E+00
      0.00000000000000E+00   3.13481601674386E-17
      2.20000000000000E-01
      0.00000000000000E+00   0.00000000000000E+00   0.00000000000000E+00   0.00000000000000E+00  -1.83940897850217E-13
     -8.51514271550449E-11  -8.53353680528951E-11  -1.17978044736241E-17   8.80000000000000E-02   8.80000000000000E-02
      0.00000000000000E+00   0.00000000000000E+00   0.00000000000000E+00   0.00000000000000E+00   0.00000000000000E+00
     -3.63680218395949E-17   3.80000000000000E-01   3.80000000000000E-01   0.00000000000000E+00   0.00000000000000E+00
      8.53279571484189E-11   7.41090447626050E-15   8.53353680528951E-11   1.78673081058846E-17   2.10000000000000E-01
      2.10000000000000E-01   0.00000000000000E+00   0.00000000000000E+00   0.00000000000000E+00   0.00000000000000E+00
      0.00000000000000E+00   3.02985182073344E-17
      2.30000000000000E-01
      0.00000000000000E+00   0.00000000000000E+00   0.00000000000000E+00   0.00000000000000E+00  -1.85197172781346E-13
     -7.96969346910110E-11  -7.98821318637924E-11  -1.18415818859245E-17   9.20000000000000E-02   9.20000000000000E-02
      0.00000000000000E+00   0.00000000000000E+00   0.00000000000000E+00   0.00000000000000E+00   0.00000000000000E+00
     -3.52318853668515E-17   3.80000000000000E-01   3.80000000000000E-01   0.00000000000000E+00   0.00000000000000E+00
      7.98747064753494E-11   7.42538844293053E-15   7.98821318637924E-11   1.78246007952797E-17   2.10000000000000E-01
      2.10000000000000E-01   0.00000000000000E+00   0.00000000000000E+00   0.00000000000000E+00   0.00000000000000E+00
      0.00000000000000E+00   2.92488664574963E-17
      2.40000000000000E-01
      0.00000000000000E+00   0.00000000000000E+00   0.00000000000000E+00   0.00000000000000E+00  -1.86455973137726E-13
     -7.45841903821982E-11  -7.47706463553359E-11  -1.18853381718081E-17   9.60000000000000E-02   9.60000000000000E-02
      0.00000000000000E+00   0.00000000000000E+00   0.00000000000000E+00   0.00000000000000E+00   0.00000000000000E+00
     -3.40957584554962E-17   3.80000000000000E-01   3.80000000000000E-01   0.00000000000000E+00   0.00000000000000E+00
      7.47632098685954E-11   7.43648674064047E-15   7.47706463553360E-11   1.77818914777770E-17   2.10000000000000E-01
      2.10000000000000E-01   0.00000000000000E+00   0.00000000000000E+00   0.00000000000000E+00   0.00000000000000E+00
      0.00000000000000E+00   2.81992051495274E-17
      2.50000000000000E-01
      0.00000000000000E+00   0.00000000000000E+00   0.00000000000000E+00   0.00000000000000E+00  -1.87717272346543E-13
     -6.97941024874935E-11  -6.99818197598401E-11  -1.19290737539265E-17   1.00000000000000E-01   1.00000000000000E-01
      0.00000000000000E+00   0.00000000000000E+00   0.00000000000000E+00   0.00000000000000E+00   0.00000000000000E+00
     -3.29596408783843E-17   3.80000000000000E-01   3.80000000000000E-01   0.00000000000000E+00   0.00000000000000E+00
      6.99743753130952E-11   7.44444674493835E-15   6.99818197598401E-11   1.77391801220131E-17   2.10000000000000E-01
      2.10000000000000E-01   0.00000000000000E+00   0.00000000000000E+00   0.00000000000000E+00   0.00000000000000E+00
      0.00000000000000E+00   2.71495345102977E-17
      2.60000000000000E-01
      0.00000000000000E+00   0.00000000000000E+00   0.00000000000000E+00   0.00000000000000E+00  -1.88981044022386E-13
     -6.53084847180210E-11  -6.54974657620434E-11  -1.19727890454464E-17   1.04000000000000E-01   1.04000000000000E-01
      0.00000000000000E+00   0.00000000000000E+00   0.00000000000000E+00   0.00000000000000E+00   0.00000000000000E+00
     -3.18235324129975E-17   3.80000000000000E-01   3.80000000000000E-01   0.00000000000000E+00   0.00000000000000E+00
      6.54900162631649E-11   7.44949887852067E-15   6.54974657620434E-11   1.76964666963709E-17   2.10000000000000E-01
      2.10000000000000E-01   0.00000000000000E+00   0.00000000000000E+00   0.00000000000000E+00   0.00000000000000E+00
      0.00000000000000E+00   2.60998547620730E-17
      2.70000000000000E-01
      0.00000000000000E+00   0.00000000000000E+00   0.00000000000000E+00   0.00000000000000E+00  -1.90247261974679E-13
     -6.11100239089523E-11  -6.13002711709269E-11  -1.20164844502778E-17   1.08000000000000E-01   1.08000000000000E-01
      0.00000000000000E+00   0.00000000000000E+00   0.00000000000000E+00   0.00000000000000E+00   0.00000000000000E+00
     -3.06874328413173E-17   3.80000000000000E-01   3.80000000000000E-01   0.00000000000000E+00   0.00000000000000E+00
      6.12928193132496E-11   7.45185767740564E-15   6.13002711709270E-11   1.76537511689550E-17   2.10000000000000E-01
      2.10000000000000E-01   0.00000000000000E+00   0.00000000000000E+00   0.00000000000000E+00   0.00000000000000E+00
      0.00000000000000E+00   2.50501661226401E-17
      2.80000000000000E-01
      0.00000000000000E+00   0.00000000000000E+00   0.00000000000000E+00   0.00000000000000E+00  -1.91515900214220E-13
     -5.71822483416025E-11  -5.73737642418167E-11  -1.20601603632960E-17   1.12000000000000E-01   1.12000000000000E-01
      0.00000000000000E+00   0.00000000000000E+00   0.00000000000000E+00   0.00000000000000E+00   0.00000000000000E+00
     -2.95513419497006E-17   3.80000000000000E-01   3.80000000000000E-01   0.00000000000000E+00   0.00000000000000E+00
      5.73663125190413E-11   7.45172277540590E-15   5.73737642418168E-11   1.76110335075680E-17   2.10000000000000E-01
      2.10000000000000E-01   0.00000000000000E+00   0.00000000000000E+00   0.00000000000000E+00   0.00000000000000E+00
      0.00000000000000E+00   2.40004688054287E-17
      2.90000000000000E-01
      0.00000000000000E+00   0.00000000000000E+00   0.00000000000000E+00   0.00000000000000E+00  -1.92786932958912E-13
     -5.35094967248115E-11  -5.37022836577704E-11  -1.21038171705587E-17   1.16000000000000E-01   1.16000000000000E-01
      0.00000000000000E+00   0.00000000000000E+00   0.00000000000000E+00   0.00000000000000E+00   0.00000000000000E+00
     -2.84152595287600E-17   3.80000000000000E-01   3.80000000000000E-01   0.00000000000000E+00   0.00000000000000E+00
      5.36948343778637E-11   7.44927990680926E-15   5.37022836577705E-11   1.75683136796879E-17   2.10000000000000E-01
      2.10000000000000E-01   0.00000000000000E+00   0.00000000000000E+00   0.00000000000000E+00   0.00000000000000E+00
      0.00000000000000E+00   2.29507630196307E-17
      3.00000000000000E-01
      0.00000000000000E+00   0.00000000000000E+00   0.00000000000000E+00   0.00000000000000E+00  -1.94060334638757E-13
     -5.00768878439475E-11  -5.02709481785863E-11  -1.21474552495169E-17   1.20000000000000E-01   1.20000000000000E-01
      0.00000000000000E+00   0.00000000000000E+00   0.00000000000000E+00   0.00000000000000E+00   0.00000000000000E+00
     -2.72791853732455E-17   3.80000000000000E-01   3.80000000000000E-01   0.00000000000000E+00   0.00000000000000E+00
      5.02635034768323E-11   7.44470175397014E-15   5.02709481785862E-11   1.75255916524464E-17   2.10000000000000E-01
      2.10000000000000E-01   0.00000000000000E+00   0.00000000000000E+00   0.00000000000000E+00   0.00000000000000E+00
      0.00000000000000E+00   2.19010489703160E-17
      3.10000000000000E-01
      0.00000000000000E+00   0.00000000000000E+00   0.00000000000000E+00   0.00000000000000E+00  -1.95336079900186E-13
     -4.68702908857988E-11  -4.70656269656990E-11  -1.21910749692218E-17   1.24000000000000E-01   1.24000000000000E-01
      0.00000000000000E+00   0.00000000000000E+00   0.00000000000000E+00   0.00000000000000E+00   0.00000000000000E+00
     -2.61431192819311E-17   3.80000000000000E-01   3.80000000000000E-01   0.00000000000000E+00   0.00000000000000E+00
      4.70581888168784E-11   7.43814882050086E-15   4.70656269656989E-11   1.74828673926073E-17   2.10000000000000E-01
      2.10000000000000E-01   0.00000000000000E+00   0.00000000000000E+00   0.00000000000000E+00   0.00000000000000E+00
      0.00000000000000E+00   2.08513268585457E-17
      3.20000000000000E-01
      0.00000000000000E+00   0.00000000000000E+00   0.00000000000000E+00   0.00000000000000E+00  -1.96614143609786E-13
     -4.38762964469313E-11  -4.40729105905411E-11  -1.22346766905257E-17   1.28000000000000E-01   1.28000000000000E-01
      0.00000000000000E+00   0.00000000000000E+00   0.00000000000000E+00   0.00000000000000E+00   0.00000000000000E+00
     -2.50070610575027E-17   3.80000000000000E-01   3.80000000000000E-01   0.00000000000000E+00   0.00000000000000E+00
      4.40654808203127E-11   7.42977022840761E-15   4.40729105905411E-11   1.74401408665463E-17   2.10000000000000E-01
      2.10000000000000E-01   0.00000000000000E+00   0.00000000000000E+00   0.00000000000000E+00   0.00000000000000E+00
      0.00000000000000E+00   1.98015968814821E-17
      3.30000000000000E-01
      0.00000000000000E+00   0.00000000000000E+00   0.00000000000000E+00   0.00000000000000E+00  -1.97894500857476E-13
     -4.10821882327542E-11  -4.12800827336117E-11  -1.22782607662779E-17   1.32000000000000E-01   1.32000000000000E-01
      0.00000000000000E+00   0.00000000000000E+00   0.00000000000000E+00   0.00000000000000E+00   0.00000000000000E+00
     -2.38710105064496E-17   3.80000000000000E-01   3.80000000000000E-01   0.00000000000000E+00   0.00000000000000E+00
      4.12726630291675E-11   7.41970444410077E-15   4.12800827336116E-11   1.73974120402304E-17   2.10000000000000E-01
      2.10000000000000E-01   0.00000000000000E+00   0.00000000000000E+00   0.00000000000000E+00   0.00000000000000E+00
      0.00000000000000E+00   1.87518592324971E-17
      3.40000000000000E-01
      0.00000000000000E+00   0.00000000000000E+00   0.00000000000000E+00   0.00000000000000E+00  -1.99177126959188E-13
     -3.84759154541999E-11  -3.86750925811591E-11  -1.23218275415165E-17   1.36000000000000E-01   1.36000000000000E-01
      0.00000000000000E+00   0.00000000000000E+00   0.00000000000000E+00   0.00000000000000E+00   0.00000000000000E+00
     -2.27349674389586E-17   3.80000000000000E-01   3.80000000000000E-01   0.00000000000000E+00   0.00000000000000E+00
      3.86676845011343E-11   7.40808002478266E-15   3.86750925811591E-11   1.73546808791990E-17   2.10000000000000E-01
      2.10000000000000E-01   0.00000000000000E+00   0.00000000000000E+00   0.00000000000000E+00   0.00000000000000E+00
      0.00000000000000E+00   1.77021141012761E-17
      3.50000000000000E-01
      0.00000000000000E+00   0.00000000000000E+00   0.00000000000000E+00   0.00000000000000E+00  -2.00461997459086E-13
     -3.60460659282489E-11  -3.62465279257080E-11  -1.23653773536546E-17   1.40000000000000E-01   1.40000000000000E-01
      0.00000000000000E+00   0.00000000000000E+00   0.00000000000000E+00   0.00000000000000E+00   0.00000000000000E+00
     -2.15989316688106E-17   3.80000000000000E-01   3.80000000000000E-01   0.00000000000000E+00   0.00000000000000E+00
      3.62391329094659E-11   7.39501624206853E-15   3.62465279257080E-11   1.73119473485441E-17   2.10000000000000E-01
      2.10000000000000E-01   0.00000000000000E+00   0.00000000000000E+00   0.00000000000000E+00   0.00000000000000E+00
      0.00000000000000E+00   1.66523616739211E-17
      3.60000000000000E-01
      0.00000000000000E+00   0.00000000000000E+00   0.00000000000000E+00   0.00000000000000E+00  -2.01749088131392E-13
     -3.37818398883845E-11  -3.39835889765159E-11  -1.24089105326627E-17   1.44000000000000E-01   1.44000000000000E-01
      0.00000000000000E+00   0.00000000000000E+00   0.00000000000000E+00   0.00000000000000E+00   0.00000000000000E+00
     -2.04629030132799E-17   3.80000000000000E-01   3.80000000000000E-01   0.00000000000000E+00   0.00000000000000E+00
      3.39762083527821E-11   7.38062373384781E-15   3.39835889765160E-11   1.72692114128920E-17   2.10000000000000E-01
      2.10000000000000E-01   0.00000000000000E+00   0.00000000000000E+00   0.00000000000000E+00   0.00000000000000E+00
      0.00000000000000E+00   1.56026021330506E-17
      3.70000000000000E-01
      0.00000000000000E+00   0.00000000000000E+00   0.00000000000000E+00   0.00000000000000E+00  -2.03038374981819E-13