DF-ISE text

Info {
  version   = 1.0
  type      = xyplot
  datasets  = [
    "time"
    "source OuterVoltage" "source InnerVoltage" "source QuasiFermiPotential" "source DisplacementCurrent" "source eCurrent"
    "source hCurrent" "source TotalCurrent" "source Charge" "topGate OuterVoltage" "topGate InnerVoltage"
    "topGate QuasiFermiPotential" "topGate DisplacementCurrent" "topGate eCurrent" "topGate hCurrent" "topGate TotalCurrent"
    "topGate Charge" "drain OuterVoltage" "drain InnerVoltage" "drain QuasiFermiPotential" "drain DisplacementCurrent"
    "drain eCurrent" "drain hCurrent" "drain TotalCurrent" "drain Charge" "bottomGate OuterVoltage"
    "bottomGate InnerVoltage" "bottomGate QuasiFermiPotential" "bottomGate DisplacementCurrent" "bottomGate eCurrent" "bottomGate hCurrent"
    "bottomGate TotalCurrent" "bottomGate Charge" ]
  functions = [
    Time
    OuterVoltage InnerVoltage QuasiFermiPotential DisplacementCurrent eCurrent
    hCurrent TotalCurrent Charge OuterVoltage InnerVoltage
    QuasiFermiPotential DisplacementCurrent eCurrent hCurrent TotalCurrent
    Charge OuterVoltage InnerVoltage QuasiFermiPotential DisplacementCurrent
    eCurrent hCurrent TotalCurrent Charge OuterVoltage
    InnerVoltage QuasiFermiPotential DisplacementCurrent eCurrent hCurrent
    TotalCurrent Charge ]
}

Data {
      1.00000000000000E-02
      0.00000000000000E+00   0.00000000000000E+00   0.00000000000000E+00   0.00000000000000E+00  -1.31788398380130E-13
     -4.37516388792684E-12  -4.50695228630697E-12  -9.86465204422266E-18   4.00000000000000E-03   4.00000000000000E-03
      0.00000000000000E+00   0.00000000000000E+00   0.00000000000000E+00   0.00000000000000E+00   0.00000000000000E+00
     -3.41647879655208E-17   1.50000000000000E-01   1.50000000000000E-01   0.00000000000000E+00   0.00000000000000E+00
      4.50111812329859E-12   5.83416300837562E-15   4.50695228630697E-12   1.48063647954180E-17   1.20000000000000E-01
      1.20000000000000E-01   0.00000000000000E+00   0.00000000000000E+00   0.00000000000000E+00   0.00000000000000E+00
      0.00000000000000E+00   2.92230752143254E-17
      2.00000000000000E-02
      0.00000000000000E+00   0.00000000000000E+00   0.00000000000000E+00   0.00000000000000E+00  -1.32901131126814E-13
     -3.93989249435064E-12  -4.07279362547746E-12  -9.90994658271379E-18   8.00000000000000E-03   8.00000000000000E-03
      0.00000000000000E+00   0.00000000000000E+00   0.00000000000000E+00   0.00000000000000E+00   0.00000000000000E+00
     -3.30277585272164E-17   1.50000000000000E-01   1.50000000000000E-01   0.00000000000000E+00   0.00000000000000E+00
      4.06698842969867E-12   5.80519577878986E-15   4.07279362547746E-12   1.47633892392465E-17   1.20000000000000E-01
      1.20000000000000E-01   0.00000000000000E+00   0.00000000000000E+00   0.00000000000000E+00   0.00000000000000E+00
      0.00000000000000E+00   2.81743158706837E-17
      3.00000000000000E-02
      0.00000000000000E+00   0.00000000000000E+00   0.00000000000000E+00   0.00000000000000E+00  -1.34017789394298E-13
     -3.54550762584016E-12  -3.67952541523445E-12  -9.95518789075900E-18   1.20000000000000E-02   1.20000000000000E-02
      0.00000000000000E+00   0.00000000000000E+00   0.00000000000000E+00   0.00000000000000E+00   0.00000000000000E+00
     -3.18907531048888E-17   1.50000000000000E-01   1.50000000000000E-01   0.00000000000000E+00   0.00000000000000E+00
      3.67374917360994E-12   5.77624162450860E-15   3.67952541523445E-12   1.47204084286768E-17   1.20000000000000E-01
      1.20000000000000E-01   0.00000000000000E+00   0.00000000000000E+00   0.00000000000000E+00   0.00000000000000E+00
      0.00000000000000E+00   2.71255325669710E-17
      4.00000000000000E-02
      0.00000000000000E+00   0.00000000000000E+00   0.00000000000000E+00   0.00000000000000E+00  -1.35138338077663E-13
     -3.18854948735249E-12  -3.32368782543015E-12  -1.00003771325537E-17   1.60000000000000E-02   1.60000000000000E-02
      0.00000000000000E+00   0.00000000000000E+00   0.00000000000000E+00   0.00000000000000E+00   0.00000000000000E+00
     -3.07537710321737E-17   1.50000000000000E-01   1.50000000000000E-01   0.00000000000000E+00   0.00000000000000E+00
      3.31794052280998E-12   5.74730262016953E-15   3.32368782543015E-12   1.46774222001831E-17   1.20000000000000E-01
      1.20000000000000E-01   0.00000000000000E+00   0.00000000000000E+00   0.00000000000000E+00   0.00000000000000E+00
      0.00000000000000E+00   2.60767259645444E-17
      5.00000000000000E-02
      0.00000000000000E+00   0.00000000000000E+00   0.00000000000000E+00   0.00000000000000E+00  -1.36262742037356E-13
     -2.86581313249494E-12  -3.00207587453229E-12  -1.00455154451185E-17   2.00000000000000E-02   2.00000000000000E-02
      0.00000000000000E+00   0.00000000000000E+00   0.00000000000000E+00   0.00000000000000E+00   0.00000000000000E+00
     -2.96168116577995E-17   1.50000000000000E-01   1.50000000000000E-01   0.00000000000000E+00   0.00000000000000E+00
      2.99635749535208E-12   5.71837918020956E-15   3.00207587453229E-12   1.46344303928123E-17   1.20000000000000E-01
      1.20000000000000E-01   0.00000000000000E+00   0.00000000000000E+00   0.00000000000000E+00   0.00000000000000E+00
      0.00000000000000E+00   2.50278967101056E-17
      6.00000000000000E-02
      0.00000000000000E+00   0.00000000000000E+00   0.00000000000000E+00   0.00000000000000E+00  -1.37390966121803E-13
     -2.57433313333955E-12  -2.71172409946135E-12  -1.00906039389346E-17   2.40000000000000E-02   2.40000000000000E-02
      0.00000000000000E+00   0.00000000000000E+00   0.00000000000000E+00   0.00000000000000E+00   0.00000000000000E+00
     -2.84798743450495E-17   1.50000000000000E-01   1.50000000000000E-01   0.00000000000000E+00   0.00000000000000E+00
      2.70603462699709E-12   5.68947246425625E-15   2.71172409946135E-12   1.45914328477831E-17   1.20000000000000E-01
      1.20000000000000E-01   0.00000000000000E+00   0.00000000000000E+00   0.00000000000000E+00   0.00000000000000E+00
      0.00000000000000E+00   2.39790454362010E-17
      7.00000000000000E-02
      0.00000000000000E+00   0.00000000000000E+00   0.00000000000000E+00   0.00000000000000E+00  -1.38522975188163E-13
     -2.31136890763177E-12  -2.44989188281993E-12  -1.01356436985661E-17   2.80000000000000E-02   2.80000000000000E-02
      0.00000000000000E+00   0.00000000000000E+00   0.00000000000000E+00   0.00000000000000E+00   0.00000000000000E+00
     -2.73429584712461E-17   1.50000000000000E-01   1.50000000000000E-01   0.00000000000000E+00   0.00000000000000E+00
      2.44423129926875E-12   5.66058355118433E-15   2.44989188281993E-12   1.45484294081096E-17   1.20000000000000E-01
      1.20000000000000E-01   0.00000000000000E+00   0.00000000000000E+00   0.00000000000000E+00   0.00000000000000E+00
      0.00000000000000E+00   2.29301727617026E-17
      8.00000000000000E-02
      0.00000000000000E+00   0.00000000000000E+00   0.00000000000000E+00   0.00000000000000E+00  -1.39658734121512E-13
     -2.07439069552639E-12  -2.21404942964790E-12  -1.01806357832680E-17   3.20000000000000E-02   3.20000000000000E-02
      0.00000000000000E+00   0.00000000000000E+00   0.00000000000000E+00   0.00000000000000E+00   0.00000000000000E+00
     -2.62060634272553E-17   1.50000000000000E-01   1.50000000000000E-01   0.00000000000000E+00   0.00000000000000E+00
      2.20841771655989E-12   5.63171308801630E-15   2.21404942964790E-12   1.45054199182507E-17   1.20000000000000E-01
      1.20000000000000E-01   0.00000000000000E+00   0.00000000000000E+00   0.00000000000000E+00   0.00000000000000E+00
      0.00000000000000E+00   2.18812792922726E-17
      9.00000000000000E-02
      0.00000000000000E+00   0.00000000000000E+00   0.00000000000000E+00   0.00000000000000E+00  -1.40798207852651E-13
     -1.86106617405052E-12  -2.00186438190317E-12  -1.02255812275818E-17   3.60000000000000E-02   3.60000000000000E-02
      0.00000000000000E+00   0.00000000000000E+00   0.00000000000000E+00   0.00000000000000E+00   0.00000000000000E+00
     -2.50691886170104E-17   1.50000000000000E-01   1.50000000000000E-01   0.00000000000000E+00   0.00000000000000E+00
      1.99626152008478E-12   5.60286181838874E-15   2.00186438190317E-12   1.44624042237817E-17   1.20000000000000E-01
      1.20000000000000E-01   0.00000000000000E+00   0.00000000000000E+00   0.00000000000000E+00   0.00000000000000E+00
      0.00000000000000E+00   2.08323656208106E-17
      1.00000000000000E-01
      0.00000000000000E+00   0.00000000000000E+00   0.00000000000000E+00   0.00000000000000E+00  -1.41941361374656E-13
     -1.66924769535053E-12  -1.81118905672519E-12  -1.02704810419184E-17   4.00000000000000E-02   4.00000000000000E-02
      0.00000000000000E+00   0.00000000000000E+00   0.00000000000000E+00   0.00000000000000E+00   0.00000000000000E+00
     -2.39323334570531E-17   1.50000000000000E-01   1.50000000000000E-01   0.00000000000000E+00   0.00000000000000E+00
      1.80561502587450E-12   5.57403085069259E-15   1.81118905672519E-12   1.44193821710853E-17   1.20000000000000E-01
      1.20000000000000E-01   0.00000000000000E+00   0.00000000000000E+00   0.00000000000000E+00   0.00000000000000E+00
      0.00000000000000E+00   1.97834323278862E-17
      1.10000000000000E-01
      0.00000000000000E+00   0.00000000000000E+00   0.00000000000000E+00   0.00000000000000E+00  -1.43088159757940E-13
     -1.49696013446887E-12  -1.64004829422681E-12  -1.03153362131273E-17   4.40000000000000E-02   4.40000000000000E-02
      0.00000000000000E+00   0.00000000000000E+00   0.00000000000000E+00   0.00000000000000E+00   0.00000000000000E+00
     -2.27954973760922E-17   1.50000000000000E-01   1.50000000000000E-01   0.00000000000000E+00   0.00000000000000E+00
      1.63450307345282E-12   5.54522077399605E-15   1.64004829422681E-12   1.43763536070631E-17   1.20000000000000E-01
      1.20000000000000E-01   0.00000000000000E+00   0.00000000000000E+00   0.00000000000000E+00   0.00000000000000E+00
      0.00000000000000E+00   1.87344799821564E-17
      1.20000000000000E-01
      0.00000000000000E+00   0.00000000000000E+00   0.00000000000000E+00   0.00000000000000E+00  -1.44238568164555E-13
     -1.34238933539357E-12  -1.48662790355812E-12  -1.03601477050541E-17   4.80000000000000E-02   4.80000000000000E-02
      0.00000000000000E+00   0.00000000000000E+00   0.00000000000000E+00   0.00000000000000E+00   0.00000000000000E+00
     -2.16586798145777E-17   1.50000000000000E-01   1.50000000000000E-01   0.00000000000000E+00   0.00000000000000E+00
      1.48111147131303E-12   5.51643224510010E-15   1.48662790355813E-12   1.43333183788625E-17   1.20000000000000E-01
      1.20000000000000E-01   0.00000000000000E+00   0.00000000000000E+00   0.00000000000000E+00   0.00000000000000E+00
      0.00000000000000E+00   1.76855091407693E-17
      1.30000000000000E-01
      0.00000000000000E+00   0.00000000000000E+00   0.00000000000000E+00   0.00000000000000E+00  -1.45392551861299E-13
     -1.20387113907068E-12  -1.34926369093198E-12  -1.04049164590854E-17   5.20000000000000E-02   5.20000000000000E-02
      0.00000000000000E+00   0.00000000000000E+00   0.00000000000000E+00   0.00000000000000E+00   0.00000000000000E+00
     -2.05218802242898E-17   1.50000000000000E-01   1.50000000000000E-01   0.00000000000000E+00   0.00000000000000E+00
      1.34377602484038E-12   5.48766609160092E-15   1.34926369093198E-12   1.42902763336204E-17   1.20000000000000E-01
      1.20000000000000E-01   0.00000000000000E+00   0.00000000000000E+00   0.00000000000000E+00   0.00000000000000E+00
      0.00000000000000E+00   1.66365203497548E-17
      1.40000000000000E-01
      0.00000000000000E+00   0.00000000000000E+00   0.00000000000000E+00   0.00000000000000E+00  -1.46550076231869E-13
     -1.07988097868501E-12  -1.22643105491688E-12  -1.04496433946818E-17   5.60000000000000E-02   5.60000000000000E-02
      0.00000000000000E+00   0.00000000000000E+00   0.00000000000000E+00   0.00000000000000E+00   0.00000000000000E+00
     -1.93850980679424E-17   1.50000000000000E-01   1.50000000000000E-01   0.00000000000000E+00   0.00000000000000E+00
      1.22097213190020E-12   5.45892301667376E-15   1.22643105491688E-12   1.42472273182208E-17   1.20000000000000E-01
      1.20000000000000E-01   0.00000000000000E+00   0.00000000000000E+00   0.00000000000000E+00   0.00000000000000E+00
      0.00000000000000E+00   1.55875141444033E-17
      1.50000000000000E-01
      0.00000000000000E+00   0.00000000000000E+00   0.00000000000000E+00   0.00000000000000E+00  -1.47711106788227E-13
     -9.69024027721088E-13  -1.11673513450931E-12  -1.04943294098983E-17   6.00000000000000E-02   6.00000000000000E-02
      0.00000000000000E+00   0.00000000000000E+00   0.00000000000000E+00   0.00000000000000E+00   0.00000000000000E+00
     -1.82483328187990E-17   1.50000000000000E-01   1.50000000000000E-01   0.00000000000000E+00   0.00000000000000E+00
      1.11130493093466E-12   5.43020357465896E-15   1.11673513450932E-12   1.42041711790654E-17   1.20000000000000E-01
      1.20000000000000E-01   0.00000000000000E+00   0.00000000000000E+00   0.00000000000000E+00   0.00000000000000E+00
      0.00000000000000E+00   1.45384910496319E-17
      1.60000000000000E-01
      0.00000000000000E+00   0.00000000000000E+00   0.00000000000000E+00   0.00000000000000E+00  -1.48875609181134E-13
     -8.70025885401479E-13  -1.01890149458261E-12  -1.05389753818942E-17   6.40000000000000E-02   6.40000000000000E-02
      0.00000000000000E+00   0.00000000000000E+00   0.00000000000000E+00   0.00000000000000E+00   0.00000000000000E+00
     -1.71115839603024E-17   1.50000000000000E-01   1.50000000000000E-01   0.00000000000000E+00   0.00000000000000E+00
      1.01349998608790E-12   5.40150849471214E-15   1.01890149458261E-12   1.41611077618561E-17   1.20000000000000E-01
      1.20000000000000E-01   0.00000000000000E+00   0.00000000000000E+00   0.00000000000000E+00   0.00000000000000E+00
      0.00000000000000E+00   1.34894515803406E-17
      1.70000000000000E-01
      0.00000000000000E+00   0.00000000000000E+00   0.00000000000000E+00   0.00000000000000E+00  -1.50043549209916E-13
     -7.81723782741598E-13  -9.31767331951514E-13  -1.05835821674303E-17   6.80000000000000E-02   6.80000000000000E-02
      0.00000000000000E+00   0.00000000000000E+00   0.00000000000000E+00   0.00000000000000E+00   0.00000000000000E+00
     -1.59748509857149E-17   1.50000000000000E-01   1.50000000000000E-01   0.00000000000000E+00   0.00000000000000E+00
      9.26394493611578E-13   5.37283833993602E-15   9.31767331951514E-13   1.41180369113882E-17   1.20000000000000E-01
      1.20000000000000E-01   0.00000000000000E+00   0.00000000000000E+00   0.00000000000000E+00   0.00000000000000E+00
      0.00000000000000E+00   1.24403962417570E-17
      1.80000000000000E-01
      0.00000000000000E+00   0.00000000000000E+00   0.00000000000000E+00   0.00000000000000E+00  -1.51214892831601E-13
     -7.03058294485482E-13  -8.54273187317083E-13  -1.06281506033554E-17   7.20000000000000E-02   7.20000000000000E-02
      0.00000000000000E+00   0.00000000000000E+00   0.00000000000000E+00   0.00000000000000E+00   0.00000000000000E+00
     -1.48381333977702E-17   1.50000000000000E-01   1.50000000000000E-01   0.00000000000000E+00   0.00000000000000E+00
      8.48928993592120E-13   5.34419372496417E-15   8.54273187317084E-13   1.40749584713536E-17   1.20000000000000E-01
      1.20000000000000E-01   0.00000000000000E+00   0.00000000000000E+00   0.00000000000000E+00   0.00000000000000E+00
      0.00000000000000E+00   1.13913255297719E-17
      1.90000000000000E-01
      0.00000000000000E+00   0.00000000000000E+00   0.00000000000000E+00   0.00000000000000E+00  -1.52389606169357E-13
     -6.33065539945653E-13  -7.85455146115010E-13  -1.06726815070818E-17   7.60000000000000E-02   7.60000000000000E-02
      0.00000000000000E+00   0.00000000000000E+00   0.00000000000000E+00   0.00000000000000E+00   0.00000000000000E+00
     -1.37014307083360E-17   1.50000000000000E-01   1.50000000000000E-01   0.00000000000000E+00   0.00000000000000E+00
      7.80139570890412E-13   5.31557522459622E-15   7.85455146115009E-13   1.40318722841530E-17   1.20000000000000E-01
      1.20000000000000E-01   0.00000000000000E+00   0.00000000000000E+00   0.00000000000000E+00   0.00000000000000E+00
      0.00000000000000E+00   1.03422399312648E-17
      2.00000000000000E-01
      0.00000000000000E+00   0.00000000000000E+00   0.00000000000000E+00   0.00000000000000E+00  -1.53567655520430E-13
     -5.70869857051489E-13  -7.24437512571919E-13  -1.07171756770498E-17   8.00000000000000E-02   8.00000000000000E-02
      0.00000000000000E+00   0.00000000000000E+00   0.00000000000000E+00   0.00000000000000E+00   0.00000000000000E+00
     -1.25647424380865E-17   1.50000000000000E-01   1.50000000000000E-01   0.00000000000000E+00   0.00000000000000E+00
      7.19150529095380E-13   5.28698347653825E-15   7.24437512571919E-13   1.39887781907151E-17   1.20000000000000E-01
      1.20000000000000E-01   0.00000000000000E+00   0.00000000000000E+00   0.00000000000000E+00   0.00000000000000E+00
      0.00000000000000E+00   9.29313992442121E-18
      2.10000000000000E-01
      0.00000000000000E+00   0.00000000000000E+00   0.00000000000000E+00   0.00000000000000E+00  -1.54749007363393E-13
     -5.15676932808295E-13  -6.70425940171688E-13  -1.07616338931815E-17   8.40000000000000E-02   8.40000000000000E-02
      0.00000000000000E+00   0.00000000000000E+00   0.00000000000000E+00   0.00000000000000E+00   0.00000000000000E+00
     -1.14280681161837E-17   1.50000000000000E-01   1.50000000000000E-01   0.00000000000000E+00   0.00000000000000E+00
      6.65167521265954E-13   5.25841890573272E-15   6.70425940171687E-13   1.39456760303247E-17   1.20000000000000E-01
      1.20000000000000E-01   0.00000000000000E+00   0.00000000000000E+00   0.00000000000000E+00   0.00000000000000E+00
      0.00000000000000E+00   8.24402597904054E-18
      2.20000000000000E-01
      0.00000000000000E+00   0.00000000000000E+00   0.00000000000000E+00   0.00000000000000E+00  -1.55933628364991E-13
     -4.66767375093019E-13  -6.22701003458010E-13  -1.08060569173242E-17   8.80000000000000E-02   8.80000000000000E-02
      0.00000000000000E+00   0.00000000000000E+00   0.00000000000000E+00   0.00000000000000E+00   0.00000000000000E+00
     -1.02914072799683E-17   1.50000000000000E-01   1.50000000000000E-01   0.00000000000000E+00   0.00000000000000E+00
      6.17471121274096E-13   5.22988218391421E-15   6.22701003458010E-13   1.39025656404556E-17   1.20000000000000E-01
      1.20000000000000E-01   0.00000000000000E+00   0.00000000000000E+00   0.00000000000000E+00   0.00000000000000E+00
      0.00000000000000E+00   7.19489855683686E-18
      2.30000000000000E-01
      0.00000000000000E+00   0.00000000000000E+00   0.00000000000000E+00   0.00000000000000E+00  -1.57121485386484E-13
     -4.23490708027797E-13  -5.80612193414281E-13  -1.08504454936832E-17   9.20000000000000E-02   9.20000000000000E-02
      0.00000000000000E+00   0.00000000000000E+00   0.00000000000000E+00   0.00000000000000E+00   0.00000000000000E+00
     -9.15475947465895E-18   1.50000000000000E-01   1.50000000000000E-01   0.00000000000000E+00   0.00000000000000E+00
      5.75410819663355E-13   5.20137375092535E-15   5.80612193414281E-13   1.38594468566108E-17   1.20000000000000E-01
      1.20000000000000E-01   0.00000000000000E+00   0.00000000000000E+00   0.00000000000000E+00   0.00000000000000E+00
      0.00000000000000E+00   6.14575811173143E-18
      2.40000000000000E-01
      0.00000000000000E+00   0.00000000000000E+00   0.00000000000000E+00   0.00000000000000E+00  -1.58312545489498E-13
     -3.85259776812555E-13  -5.43572322302053E-13  -1.08948003492455E-17   9.60000000000000E-02   9.60000000000000E-02
      0.00000000000000E+00   0.00000000000000E+00   0.00000000000000E+00   0.00000000000000E+00   0.00000000000000E+00
     -8.01812425305893E-18   1.50000000000000E-01   1.50000000000000E-01   0.00000000000000E+00   0.00000000000000E+00
      5.38399428105375E-13   5.17289419667801E-15   5.43572322302053E-13   1.38163195121663E-17   1.20000000000000E-01
      1.20000000000000E-01   0.00000000000000E+00   0.00000000000000E+00   0.00000000000000E+00   0.00000000000000E+00
      0.00000000000000E+00   5.09660509013817E-18
      2.50000000000000E-01
      0.00000000000000E+00   0.00000000000000E+00   0.00000000000000E+00   0.00000000000000E+00  -1.59506775941517E-13
     -3.51545544836188E-13  -5.11052320777705E-13  -1.09391221941924E-17   1.00000000000000E-01   1.00000000000000E-01
      0.00000000000000E+00   0.00000000000000E+00   0.00000000000000E+00   0.00000000000000E+00   0.00000000000000E+00
     -6.88150117527095E-18   1.50000000000000E-01   1.50000000000000E-01   0.00000000000000E+00   0.00000000000000E+00
      5.05907876769840E-13   5.14444400786426E-15   5.11052320777705E-13   1.37731834382211E-17   1.20000000000000E-01
      1.20000000000000E-01   0.00000000000000E+00   0.00000000000000E+00   0.00000000000000E+00   0.00000000000000E+00
      0.00000000000000E+00   4.04743993124222E-18
      2.60000000000000E-01
      0.00000000000000E+00   0.00000000000000E+00   0.00000000000000E+00   0.00000000000000E+00  -1.60704144220887E-13
     -3.21872268709460E-13  -4.82576412930347E-13  -1.09834117223032E-17   1.04000000000000E-01   1.04000000000000E-01
      0.00000000000000E+00   0.00000000000000E+00   0.00000000000000E+00   0.00000000000000E+00   0.00000000000000E+00
     -5.74488980841883E-18   1.50000000000000E-01   1.50000000000000E-01   0.00000000000000E+00   0.00000000000000E+00
      4.77460389221487E-13   5.11602370885927E-15   4.82576412930347E-13   1.37300384634502E-17   1.20000000000000E-01
      1.20000000000000E-01   0.00000000000000E+00   0.00000000000000E+00   0.00000000000000E+00   0.00000000000000E+00
      0.00000000000000E+00   2.99826306727187E-18
      2.70000000000000E-01
      0.00000000000000E+00   0.00000000000000E+00   0.00000000000000E+00   0.00000000000000E+00  -1.61904618021621E-13
     -2.95813035574493E-13  -4.57717653596113E-13  -1.10276696113496E-17   1.08000000000000E-01   1.08000000000000E-01
      0.00000000000000E+00   0.00000000000000E+00   0.00000000000000E+00   0.00000000000000E+00   0.00000000000000E+00
     -4.60828972637603E-18   1.50000000000000E-01   1.50000000000000E-01   0.00000000000000E+00   0.00000000000000E+00
      4.52630019820680E-13   5.08763377543356E-15   4.57717653596114E-13   1.36868844139613E-17   1.20000000000000E-01
      1.20000000000000E-01   0.00000000000000E+00   0.00000000000000E+00   0.00000000000000E+00   0.00000000000000E+00
      0.00000000000000E+00   1.94907492376440E-18
      2.80000000000000E-01
      0.00000000000000E+00   0.00000000000000E+00   0.00000000000000E+00   0.00000000000000E+00  -1.63108165257677E-13
     -2.72985648528188E-13  -4.36093813785865E-13  -1.10718965234801E-17   1.12000000000000E-01   1.12000000000000E-01
      0.00000000000000E+00   0.00000000000000E+00   0.00000000000000E+00   0.00000000000000E+00   0.00000000000000E+00
     -3.47170050950046E-18   1.50000000000000E-01   1.50000000000000E-01   0.00000000000000E+00   0.00000000000000E+00
      4.31034539029525E-13   5.05927475633978E-15   4.36093813785865E-13   1.36437211131548E-17   1.20000000000000E-01
      1.20000000000000E-01   0.00000000000000E+00   0.00000000000000E+00   0.00000000000000E+00   0.00000000000000E+00
      0.00000000000000E+00   8.99875919825782E-19
      2.90000000000000E-01
      0.00000000000000E+00   0.00000000000000E+00   0.00000000000000E+00   0.00000000000000E+00  -1.64314754066885E-13
     -2.53048845465154E-13  -4.17363599532040E-13  -1.11160931055959E-17   1.16000000000000E-01   1.16000000000000E-01
      0.00000000000000E+00   0.00000000000000E+00   0.00000000000000E+00   0.00000000000000E+00   0.00000000000000E+00
     -2.33512174437559E-18   1.50000000000000E-01   1.50000000000000E-01   0.00000000000000E+00   0.00000000000000E+00
      4.12332652513669E-13   5.03094701837076E-15   4.17363599532040E-13   1.36005483815865E-17   1.20000000000000E-01
      1.20000000000000E-01   0.00000000000000E+00   0.00000000000000E+00   0.00000000000000E+00   0.00000000000000E+00
      0.00000000000000E+00  -1.49333531614969E-19
      3.00000000000000E-01
      0.00000000000000E+00   0.00000000000000E+00   0.00000000000000E+00   0.00000000000000E+00  -1.65524352815059E-13
     -2.35698838859181E-13  -4.01223191674240E-13  -1.11602599897178E-17   1.20000000000000E-01   1.20000000000000E-01
      0.00000000000000E+00   0.00000000000000E+00   0.00000000000000E+00   0.00000000000000E+00   0.00000000000000E+00
     -1.19855302355708E-18   1.50000000000000E-01   1.50000000000000E-01   0.00000000000000E+00   0.00000000000000E+00
      3.96220540477862E-13   5.00265119637793E-15   4.01223191674240E-13   1.35573660368320E-17   1.20000000000000E-01
      1.20000000000000E-01   0.00000000000000E+00   0.00000000000000E+00   0.00000000000000E+00   0.00000000000000E+00
      0.00000000000000E+00  -1.19855302355706E-18
      3.10000000000000E-01
      0.00000000000000E+00   0.00000000000000E+00   0.00000000000000E+00   0.00000000000000E+00  -1.66736930098968E-13
     -2.20666161846422E-13  -3.87403091945389E-13  -1.12043977933443E-17   1.24000000000000E-01   1.24000000000000E-01
      0.00000000000000E+00   0.00000000000000E+00   0.00000000000000E+00   0.00000000000000E+00   0.00000000000000E+00
     -6.19939453250342E-20   1.50000000000000E-01   1.50000000000000E-01   0.00000000000000E+00   0.00000000000000E+00
      3.82428704276630E-13   4.97438766875994E-15   3.87403091945390E-13   1.35141738933534E-17   1.20000000000000E-01
      1.20000000000000E-01   0.00000000000000E+00   0.00000000000000E+00   0.00000000000000E+00   0.00000000000000E+00
      0.00000000000000E+00  -2.24778215468404E-18
      3.20000000000000E-01
      0.00000000000000E+00   0.00000000000000E+00   0.00000000000000E+00   0.00000000000000E+00  -1.67952454749858E-13
     -2.07712810189233E-13  -3.75665264939090E-13  -1.12485071198009E-17   1.28000000000000E-01   1.28000000000000E-01
      0.00000000000000E+00   0.00000000000000E+00   0.00000000000000E+00   0.00000000000000E+00   0.00000000000000E+00
      1.07455588655868E-18   1.50000000000000E-01   1.50000000000000E-01   0.00000000000000E+00   0.00000000000000E+00
      3.70719108004201E-13   4.94615693488931E-15   3.75665264939090E-13   1.34709717623672E-17   1.20000000000000E-01
      1.20000000000000E-01   0.00000000000000E+00   0.00000000000000E+00   0.00000000000000E+00   0.00000000000000E+00
      0.00000000000000E+00  -3.29702052912492E-18
      3.30000000000000E-01
      0.00000000000000E+00   0.00000000000000E+00   0.00000000000000E+00   0.00000000000000E+00  -1.69170895836299E-13
     -1.96629667076337E-13  -3.65800562912635E-13  -1.12925885585822E-17   1.32000000000000E-01   1.32000000000000E-01
      0.00000000000000E+00   0.00000000000000E+00   0.00000000000000E+00   0.00000000000000E+00   0.00000000000000E+00
      2.21109686308825E-18   1.50000000000000E-01   1.50000000000000E-01   0.00000000000000E+00   0.00000000000000E+00
      3.60882603476313E-13   4.91795943632239E-15   3.65800562912635E-13   1.34277594517136E-17   1.20000000000000E-01
      1.20000000000000E-01   0.00000000000000E+00   0.00000000000000E+00   0.00000000000000E+00   0.00000000000000E+00
      0.00000000000000E+00  -4.34626775621969E-18
      3.40000000000000E-01
      0.00000000000000E+00   0.00000000000000E+00   0.00000000000000E+00   0.00000000000000E+00  -1.70392222666867E-13
     -1.87234200782112E-13  -3.57626423448980E-13  -1.13366426856839E-17   1.36000000000000E-01   1.36000000000000E-01
      0.00000000000000E+00   0.00000000000000E+00   0.00000000000000E+00   0.00000000000000E+00   0.00000000000000E+00
      3.34762937024700E-18   1.50000000000000E-01   1.50000000000000E-01   0.00000000000000E+00   0.00000000000000E+00
      3.52736627777864E-13   4.88979567111556E-15   3.57626423448980E-13   1.33845367657262E-17   1.20000000000000E-01
      1.20000000000000E-01   0.00000000000000E+00   0.00000000000000E+00   0.00000000000000E+00   0.00000000000000E+00
      0.00000000000000E+00  -5.39552345028930E-18
      3.50000000000000E-01
      0.00000000000000E+00   0.00000000000000E+00   0.00000000000000E+00   0.00000000000000E+00  -1.71616404792710E-13
     -1.79368424612053E-13  -3.50984829404763E-13  -1.13806700639290E-17   1.40000000000000E-01   1.40000000000000E-01
      0.00000000000000E+00   0.00000000000000E+00   0.00000000000000E+00   0.00000000000000E+00   0.00000000000000E+00
      4.48415378923626E-18   1.50000000000000E-01   1.50000000000000E-01   0.00000000000000E+00   0.00000000000000E+00
      3.46123163353594E-13   4.86166605116933E-15   3.50984829404763E-13   1.33413035051025E-17   1.20000000000000E-01
      1.20000000000000E-01   0.00000000000000E+00   0.00000000000000E+00   0.00000000000000E+00   0.00000000000000E+00
      0.00000000000000E+00  -6.44478723040972E-18
      3.60000000000000E-01
      0.00000000000000E+00   0.00000000000000E+00   0.00000000000000E+00   0.00000000000000E+00  -1.72843412009868E-13
     -1.72897110532250E-13  -3.45740522542118E-13  -1.14246712432845E-17   1.44000000000000E-01   1.44000000000000E-01
      0.00000000000000E+00   0.00000000000000E+00   0.00000000000000E+00   0.00000000000000E+00   0.00000000000000E+00
      5.62067049670000E-18   1.50000000000000E-01   1.50000000000000E-01   0.00000000000000E+00   0.00000000000000E+00
      3.40906951462729E-13   4.83357107938877E-15   3.45740522542118E-13   1.32980594667744E-17   1.20000000000000E-01
      1.20000000000000E-01   0.00000000000000E+00   0.00000000000000E+00   0.00000000000000E+00   0.00000000000000E+00
      0.00000000000000E+00  -7.49405872018984E-18
      3.70000000000000E-01
      0.00000000000000E+00   0.00000000000000E+00   0.00000000000000E+00   0.00000000000000E+00  -1.74073214361221E-13