DF-ISE text

Info {
  version   = 1.0
  type      = xyplot
  datasets  = [
    "time"
    "source OuterVoltage" "source InnerVoltage" "source QuasiFermiPotential" "source DisplacementCurrent" "source eCurrent"
    "source hCurrent" "source TotalCurrent" "source Charge" "topGate OuterVoltage" "topGate InnerVoltage"
    "topGate QuasiFermiPotential" "topGate DisplacementCurrent" "topGate eCurrent" "topGate hCurrent" "topGate TotalCurrent"
    "topGate Charge" "drain OuterVoltage" "drain InnerVoltage" "drain QuasiFermiPotential" "drain DisplacementCurrent"
    "drain eCurrent" "drain hCurrent" "drain TotalCurrent" "drain Charge" "bottomGate OuterVoltage"
    "bottomGate InnerVoltage" "bottomGate QuasiFermiPotential" "bottomGate DisplacementCurrent" "bottomGate eCurrent" "bottomGate hCurrent"
    "bottomGate TotalCurrent" "bottomGate Charge" ]
  functions = [
    Time
    OuterVoltage InnerVoltage QuasiFermiPotential DisplacementCurrent eCurrent
    hCurrent TotalCurrent Charge OuterVoltage InnerVoltage
    QuasiFermiPotential DisplacementCurrent eCurrent hCurrent TotalCurrent
    Charge OuterVoltage InnerVoltage QuasiFermiPotential DisplacementCurrent
    eCurrent hCurrent TotalCurrent Charge OuterVoltage
    InnerVoltage QuasiFermiPotential DisplacementCurrent eCurrent hCurrent
    TotalCurrent Charge ]
}

Data {
      1.00000000000000E-02
      0.00000000000000E+00   0.00000000000000E+00   0.00000000000000E+00   0.00000000000000E+00  -1.53320136416015E-13
     -2.31102248102248E-12  -2.46434261743850E-12  -1.08725978388135E-17   4.00000000000000E-03   4.00000000000000E-03
      0.00000000000000E+00   0.00000000000000E+00   0.00000000000000E+00   0.00000000000000E+00   0.00000000000000E+00
     -5.71174015062556E-17   9.00000000000000E-02   9.00000000000000E-02   0.00000000000000E+00   0.00000000000000E+00
      2.46011950965071E-12   4.22310778778213E-15   2.46434261743850E-12   1.25393069648202E-17   2.10000000000000E-01
      2.10000000000000E-01   0.00000000000000E+00   0.00000000000000E+00   0.00000000000000E+00   0.00000000000000E+00
      0.00000000000000E+00   5.54506923802488E-17
      2.00000000000000E-02
      0.00000000000000E+00   0.00000000000000E+00   0.00000000000000E+00   0.00000000000000E+00  -1.54480254430919E-13
     -2.05663130259961E-12  -2.21111155703053E-12  -1.09169361496774E-17   8.00000000000000E-03   8.00000000000000E-03
      0.00000000000000E+00   0.00000000000000E+00   0.00000000000000E+00   0.00000000000000E+00   0.00000000000000E+00
     -5.59805943029646E-17   9.00000000000000E-02   9.00000000000000E-02   0.00000000000000E+00   0.00000000000000E+00
      2.20691480670702E-12   4.19675032351511E-15   2.21111155703053E-12   1.24958192414628E-17   2.10000000000000E-01
      2.10000000000000E-01   0.00000000000000E+00   0.00000000000000E+00   0.00000000000000E+00   0.00000000000000E+00
      0.00000000000000E+00   5.44017112111792E-17
      3.00000000000000E-02
      0.00000000000000E+00   0.00000000000000E+00   0.00000000000000E+00   0.00000000000000E+00  -1.55643371883052E-13
     -1.82908410601969E-12  -1.98472747790274E-12  -1.09612417955653E-17   1.20000000000000E-02   1.20000000000000E-02
      0.00000000000000E+00   0.00000000000000E+00   0.00000000000000E+00   0.00000000000000E+00   0.00000000000000E+00
     -5.48437956814201E-17   9.00000000000000E-02   9.00000000000000E-02   0.00000000000000E+00   0.00000000000000E+00
      1.98055704719598E-12   4.17043070675806E-15   1.98472747790274E-12   1.24523159994973E-17   2.10000000000000E-01
      2.10000000000000E-01   0.00000000000000E+00   0.00000000000000E+00   0.00000000000000E+00   0.00000000000000E+00
      0.00000000000000E+00   5.33527214774880E-17
      4.00000000000000E-02
      0.00000000000000E+00   0.00000000000000E+00   0.00000000000000E+00   0.00000000000000E+00  -1.56809464134355E-13
     -1.62582273812023E-12  -1.78263220225459E-12  -1.10055154623939E-17   1.60000000000000E-02   1.60000000000000E-02
      0.00000000000000E+00   0.00000000000000E+00   0.00000000000000E+00   0.00000000000000E+00   0.00000000000000E+00
     -5.37070051363884E-17   9.00000000000000E-02   9.00000000000000E-02   0.00000000000000E+00   0.00000000000000E+00
      1.77848805317705E-12   4.14414907753659E-15   1.78263220225459E-12   1.24087969158054E-17   2.10000000000000E-01
      2.10000000000000E-01   0.00000000000000E+00   0.00000000000000E+00   0.00000000000000E+00   0.00000000000000E+00
      0.00000000000000E+00   5.23037236829770E-17
      5.00000000000000E-02
      0.00000000000000E+00   0.00000000000000E+00   0.00000000000000E+00   0.00000000000000E+00  -1.57978506069067E-13
     -1.44450018005892E-12  -1.60247868612798E-12  -1.10497578202537E-17   2.00000000000000E-02   2.00000000000000E-02
      0.00000000000000E+00   0.00000000000000E+00   0.00000000000000E+00   0.00000000000000E+00   0.00000000000000E+00
     -5.25702221676506E-17   9.00000000000000E-02   9.00000000000000E-02   0.00000000000000E+00   0.00000000000000E+00
      1.59836078040852E-12   4.11790571946260E-15   1.60247868612798E-12   1.23652616613497E-17   2.10000000000000E-01
      2.10000000000000E-01   0.00000000000000E+00   0.00000000000000E+00   0.00000000000000E+00   0.00000000000000E+00
      0.00000000000000E+00   5.12547183265546E-17
      6.00000000000000E-02
      0.00000000000000E+00   0.00000000000000E+00   0.00000000000000E+00   0.00000000000000E+00  -1.59150472166800E-13
     -1.28296634821219E-12  -1.44211682037899E-12  -1.10939695237892E-17   2.40000000000000E-02   2.40000000000000E-02
      0.00000000000000E+00   0.00000000000000E+00   0.00000000000000E+00   0.00000000000000E+00   0.00000000000000E+00
     -5.14334462796787E-17   9.00000000000000E-02   9.00000000000000E-02   0.00000000000000E+00   0.00000000000000E+00
      1.43802511953204E-12   4.09170084695782E-15   1.44211682037900E-12   1.23217099009183E-17   2.10000000000000E-01
      2.10000000000000E-01   0.00000000000000E+00   0.00000000000000E+00   0.00000000000000E+00   0.00000000000000E+00
      0.00000000000000E+00   5.02057059025495E-17
      7.00000000000000E-02
      0.00000000000000E+00   0.00000000000000E+00   0.00000000000000E+00   0.00000000000000E+00  -1.60325336567962E-13
     -1.13925458560486E-12  -1.29957992217282E-12  -1.11381512125714E-17   2.80000000000000E-02   2.80000000000000E-02
      0.00000000000000E+00   0.00000000000000E+00   0.00000000000000E+00   0.00000000000000E+00   0.00000000000000E+00
     -5.02966769813178E-17   9.00000000000000E-02   9.00000000000000E-02   0.00000000000000E+00   0.00000000000000E+00
      1.29551438745313E-12   4.06553471969221E-15   1.29957992217282E-12   1.22781412928702E-17   2.10000000000000E-01
      2.10000000000000E-01   0.00000000000000E+00   0.00000000000000E+00   0.00000000000000E+00   0.00000000000000E+00
      0.00000000000000E+00   4.91566869010189E-17
      8.00000000000000E-02
      0.00000000000000E+00   0.00000000000000E+00   0.00000000000000E+00   0.00000000000000E+00  -1.61503073136539E-13
     -1.01156882809770E-12  -1.17307190123424E-12  -1.11823035114607E-17   3.20000000000000E-02   3.20000000000000E-02
      0.00000000000000E+00   0.00000000000000E+00   0.00000000000000E+00   0.00000000000000E+00   0.00000000000000E+00
     -4.91599137854742E-17   9.00000000000000E-02   9.00000000000000E-02   0.00000000000000E+00   0.00000000000000E+00
      1.16903249344970E-12   4.03940778454221E-15   1.17307190123424E-12   1.22345554888833E-17   2.10000000000000E-01
      2.10000000000000E-01   0.00000000000000E+00   0.00000000000000E+00   0.00000000000000E+00   0.00000000000000E+00
      0.00000000000000E+00   4.81076618080516E-17
      9.00000000000000E-02
      0.00000000000000E+00   0.00000000000000E+00   0.00000000000000E+00   0.00000000000000E+00  -1.62683655508437E-13
     -8.98271428780893E-13  -1.06095508428933E-12  -1.12264270309614E-17   3.60000000000000E-02   3.60000000000000E-02
      0.00000000000000E+00   0.00000000000000E+00   0.00000000000000E+00   0.00000000000000E+00   0.00000000000000E+00
     -4.80231562088079E-17   9.00000000000000E-02   9.00000000000000E-02   0.00000000000000E+00   0.00000000000000E+00
      1.05694176393962E-12   4.01332034971190E-15   1.06095508428933E-12   1.21909521337020E-17   2.10000000000000E-01
      2.10000000000000E-01   0.00000000000000E+00   0.00000000000000E+00   0.00000000000000E+00   0.00000000000000E+00
      0.00000000000000E+00   4.70586311060674E-17
      1.00000000000000E-01
      0.00000000000000E+00   0.00000000000000E+00   0.00000000000000E+00   0.00000000000000E+00  -1.63867057146084E-13
     -7.97871625015805E-13  -9.61738682161890E-13  -1.12705223675674E-17   4.00000000000000E-02   4.00000000000000E-02
      0.00000000000000E+00   0.00000000000000E+00   0.00000000000000E+00   0.00000000000000E+00   0.00000000000000E+00
     -4.68864037714302E-17   9.00000000000000E-02   9.00000000000000E-02   0.00000000000000E+00   0.00000000000000E+00
      9.57751409323034E-13   3.98727283885603E-15   9.61738682161890E-13   1.21473308648855E-17   2.10000000000000E-01
      2.10000000000000E-01   0.00000000000000E+00   0.00000000000000E+00   0.00000000000000E+00   0.00000000000000E+00
      0.00000000000000E+00   4.60095952741122E-17
      1.10000000000000E-01
      0.00000000000000E+00   0.00000000000000E+00   0.00000000000000E+00   0.00000000000000E+00  -1.65053251378571E-13
     -7.09014630088955E-13  -8.74067881467527E-13  -1.13145901041002E-17   4.40000000000000E-02   4.40000000000000E-02
      0.00000000000000E+00   0.00000000000000E+00   0.00000000000000E+00   0.00000000000000E+00   0.00000000000000E+00
     -4.57496559966051E-17   9.00000000000000E-02   9.00000000000000E-02   0.00000000000000E+00   0.00000000000000E+00
      8.70106615765880E-13   3.96126570164689E-15   8.74067881467527E-13   1.21036913125556E-17   2.10000000000000E-01
      2.10000000000000E-01   0.00000000000000E+00   0.00000000000000E+00   0.00000000000000E+00   0.00000000000000E+00
      0.00000000000000E+00   4.49605547881498E-17
      1.20000000000000E-01
      0.00000000000000E+00   0.00000000000000E+00   0.00000000000000E+00   0.00000000000000E+00  -1.66242211442734E-13
     -6.30471332353555E-13  -7.96713543796289E-13  -1.13586308100384E-17   4.80000000000000E-02   4.80000000000000E-02
      0.00000000000000E+00   0.00000000000000E+00   0.00000000000000E+00   0.00000000000000E+00   0.00000000000000E+00
     -4.46129124104545E-17   9.00000000000000E-02   9.00000000000000E-02   0.00000000000000E+00   0.00000000000000E+00
      7.92778244362380E-13   3.93529943390925E-15   7.96713543796289E-13   1.20600330991431E-17   2.10000000000000E-01
      2.10000000000000E-01   0.00000000000000E+00   0.00000000000000E+00   0.00000000000000E+00   0.00000000000000E+00
      0.00000000000000E+00   4.39115101213497E-17
      1.30000000000000E-01
      0.00000000000000E+00   0.00000000000000E+00   0.00000000000000E+00   0.00000000000000E+00  -1.67433910520091E-13
     -5.61128583773616E-13  -7.28562494293708E-13  -1.14026450418392E-17   5.20000000000000E-02   5.20000000000000E-02
      0.00000000000000E+00   0.00000000000000E+00   0.00000000000000E+00   0.00000000000000E+00   0.00000000000000E+00
     -4.34761725416674E-17   9.00000000000000E-02   9.00000000000000E-02   0.00000000000000E+00   0.00000000000000E+00
      7.24653119676311E-13   3.90937461739682E-15   7.28562494293707E-13   1.20163558391333E-17   2.10000000000000E-01
      2.10000000000000E-01   0.00000000000000E+00   0.00000000000000E+00   0.00000000000000E+00   0.00000000000000E+00
      0.00000000000000E+00   4.28624617443733E-17
      1.40000000000000E-01
      0.00000000000000E+00   0.00000000000000E+00   0.00000000000000E+00   0.00000000000000E+00  -1.68628321763290E-13
     -4.99980059265864E-13  -6.68608381029154E-13  -1.14466333432526E-17   5.60000000000000E-02   5.60000000000000E-02
      0.00000000000000E+00   0.00000000000000E+00   0.00000000000000E+00   0.00000000000000E+00   0.00000000000000E+00
     -4.23394359212116E-17   9.00000000000000E-02   9.00000000000000E-02   0.00000000000000E+00   0.00000000000000E+00
      6.64724889291488E-13   3.88349173766579E-15   6.68608381029154E-13   1.19726591388088E-17   2.10000000000000E-01
      2.10000000000000E-01   0.00000000000000E+00   0.00000000000000E+00   0.00000000000000E+00   0.00000000000000E+00
      0.00000000000000E+00   4.18134101256555E-17
      1.50000000000000E-01
      0.00000000000000E+00   0.00000000000000E+00   0.00000000000000E+00   0.00000000000000E+00  -1.69825418333046E-13
     -4.46117668814342E-13  -6.15943087147389E-13  -1.14905962456275E-17   6.00000000000000E-02   6.00000000000000E-02
      0.00000000000000E+00   0.00000000000000E+00   0.00000000000000E+00   0.00000000000000E+00   0.00000000000000E+00
     -4.12027020820488E-17   9.00000000000000E-02   9.00000000000000E-02   0.00000000000000E+00   0.00000000000000E+00
      6.12085435714424E-13   3.85765143296460E-15   6.15943087147388E-13   1.19289425959904E-17   2.10000000000000E-01
      2.10000000000000E-01   0.00000000000000E+00   0.00000000000000E+00   0.00000000000000E+00   0.00000000000000E+00
      0.00000000000000E+00   4.07643557316859E-17
      1.60000000000000E-01
      0.00000000000000E+00   0.00000000000000E+00   0.00000000000000E+00   0.00000000000000E+00  -1.71025173419764E-13
     -3.98723502598869E-13  -5.69748676018633E-13  -1.15345342682111E-17   6.40000000000000E-02   6.40000000000000E-02
      0.00000000000000E+00   0.00000000000000E+00   0.00000000000000E+00   0.00000000000000E+00   0.00000000000000E+00
     -4.00659705588509E-17   9.00000000000000E-02   9.00000000000000E-02   0.00000000000000E+00   0.00000000000000E+00
      5.65916821665473E-13   3.83185435315931E-15   5.69748676018633E-13   1.18852057997752E-17   2.10000000000000E-01
      2.10000000000000E-01   0.00000000000000E+00   0.00000000000000E+00   0.00000000000000E+00   0.00000000000000E+00
      0.00000000000000E+00   3.97152990272868E-17
      1.70000000000000E-01
      0.00000000000000E+00   0.00000000000000E+00   0.00000000000000E+00   0.00000000000000E+00  -1.72227560265133E-13
     -3.57062290519544E-13  -5.29289850784677E-13  -1.15784479184397E-17   6.80000000000000E-02   6.80000000000000E-02
      0.00000000000000E+00   0.00000000000000E+00   0.00000000000000E+00   0.00000000000000E+00   0.00000000000000E+00
     -3.89292408877205E-17   9.00000000000000E-02   9.00000000000000E-02   0.00000000000000E+00   0.00000000000000E+00
      5.25483749634275E-13   3.80610115040098E-15   5.29289850784676E-13   1.18414483302710E-17   2.10000000000000E-01
      2.10000000000000E-01   0.00000000000000E+00   0.00000000000000E+00   0.00000000000000E+00   0.00000000000000E+00
      0.00000000000000E+00   3.86662404758891E-17
      1.80000000000000E-01
      0.00000000000000E+00   0.00000000000000E+00   0.00000000000000E+00   0.00000000000000E+00  -1.73432552187924E-13
     -3.20474356782375E-13  -4.93906908970299E-13  -1.16223376922243E-17   7.20000000000000E-02   7.20000000000000E-02
      0.00000000000000E+00   0.00000000000000E+00   0.00000000000000E+00   0.00000000000000E+00   0.00000000000000E+00
     -3.77925126059108E-17   9.00000000000000E-02   9.00000000000000E-02   0.00000000000000E+00   0.00000000000000E+00
      4.90126516422141E-13   3.78039254815847E-15   4.93906908970299E-13   1.17976697583272E-17   2.10000000000000E-01
      2.10000000000000E-01   0.00000000000000E+00   0.00000000000000E+00   0.00000000000000E+00   0.00000000000000E+00
      0.00000000000000E+00   3.76171805398079E-17
      1.90000000000000E-01
      0.00000000000000E+00   0.00000000000000E+00   0.00000000000000E+00   0.00000000000000E+00  -1.74640122596986E-13
     -2.88369049923693E-13  -4.63009172520679E-13  -1.16662040742278E-17   7.60000000000000E-02   7.60000000000000E-02
      0.00000000000000E+00   0.00000000000000E+00   0.00000000000000E+00   0.00000000000000E+00   0.00000000000000E+00
     -3.66557852515492E-17   9.00000000000000E-02   9.00000000000000E-02   0.00000000000000E+00   0.00000000000000E+00
      4.59254443292614E-13   3.75472922806526E-15   4.63009172520680E-13   1.17538696452613E-17   2.10000000000000E-01
      2.10000000000000E-01   0.00000000000000E+00   0.00000000000000E+00   0.00000000000000E+00   0.00000000000000E+00
      0.00000000000000E+00   3.65681196805157E-17
      2.00000000000000E-01
      0.00000000000000E+00   0.00000000000000E+00   0.00000000000000E+00   0.00000000000000E+00  -1.75850245015650E-13
     -2.60218629360062E-13  -4.36068874375713E-13  -1.17100475381358E-17   8.00000000000000E-02   8.00000000000000E-02
      0.00000000000000E+00   0.00000000000000E+00   0.00000000000000E+00   0.00000000000000E+00   0.00000000000000E+00
     -3.55190583633606E-17   9.00000000000000E-02   9.00000000000000E-02   0.00000000000000E+00   0.00000000000000E+00
      4.32339762375435E-13   3.72911200027792E-15   4.36068874375713E-13   1.17100475425815E-17   2.10000000000000E-01
      2.10000000000000E-01   0.00000000000000E+00   0.00000000000000E+00   0.00000000000000E+00   0.00000000000000E+00
      0.00000000000000E+00   3.55190583589149E-17
      2.10000000000000E-01
      0.00000000000000E+00   0.00000000000000E+00   0.00000000000000E+00   0.00000000000000E+00  -1.77062893089948E-13
     -2.35552588500714E-13  -4.12615481590662E-13  -1.17538685469214E-17   8.40000000000000E-02   8.40000000000000E-02
      0.00000000000000E+00   0.00000000000000E+00   0.00000000000000E+00   0.00000000000000E+00   0.00000000000000E+00
     -3.43823314803924E-17   9.00000000000000E-02   9.00000000000000E-02   0.00000000000000E+00   0.00000000000000E+00
      4.08911939964431E-13   3.70354162623159E-15   4.12615481590662E-13   1.16662029917038E-17   2.10000000000000E-01
      2.10000000000000E-01   0.00000000000000E+00   0.00000000000000E+00   0.00000000000000E+00   0.00000000000000E+00
      0.00000000000000E+00   3.44699970356100E-17
      2.20000000000000E-01
      0.00000000000000E+00   0.00000000000000E+00   0.00000000000000E+00   0.00000000000000E+00  -1.78278040602631E-13
     -2.13952395816188E-13  -3.92230436418819E-13  -1.17976675531025E-17   8.80000000000000E-02   8.80000000000000E-02
      0.00000000000000E+00   0.00000000000000E+00   0.00000000000000E+00   0.00000000000000E+00   0.00000000000000E+00
     -3.32456041417401E-17   9.00000000000000E-02   9.00000000000000E-02   0.00000000000000E+00   0.00000000000000E+00
      3.88552417511521E-13   3.67801890729722E-15   3.92230436418818E-13   1.16223355236641E-17   2.10000000000000E-01
      2.10000000000000E-01   0.00000000000000E+00   0.00000000000000E+00   0.00000000000000E+00   0.00000000000000E+00
      0.00000000000000E+00   3.34209361711785E-17
      2.30000000000000E-01
      0.00000000000000E+00   0.00000000000000E+00   0.00000000000000E+00   0.00000000000000E+00  -1.79495661491008E-13
     -1.95046634461815E-13  -3.74542295952823E-13  -1.18414449989939E-17   9.20000000000000E-02   9.20000000000000E-02
      0.00000000000000E+00   0.00000000000000E+00   0.00000000000000E+00   0.00000000000000E+00   0.00000000000000E+00
     -3.21088758862729E-17   9.00000000000000E-02   9.00000000000000E-02   0.00000000000000E+00   0.00000000000000E+00
      3.70889751272612E-13   3.65254468021048E-15   3.74542295952823E-13   1.15784446588244E-17   2.10000000000000E-01
      2.10000000000000E-01   0.00000000000000E+00   0.00000000000000E+00   0.00000000000000E+00   0.00000000000000E+00
      0.00000000000000E+00   3.23718762264425E-17
      2.40000000000000E-01
      0.00000000000000E+00   0.00000000000000E+00   0.00000000000000E+00   0.00000000000000E+00  -1.80715729852299E-13
     -1.78506521713915E-13  -3.59222251566214E-13  -1.18852013169524E-17   9.60000000000000E-02   9.60000000000000E-02
      0.00000000000000E+00   0.00000000000000E+00   0.00000000000000E+00   0.00000000000000E+00   0.00000000000000E+00
     -3.09721462523601E-17   9.00000000000000E-02   9.00000000000000E-02   0.00000000000000E+00   0.00000000000000E+00
      3.55595131789887E-13   3.62711977632639E-15   3.59222251566214E-13   1.15345299065731E-17   2.10000000000000E-01
      2.10000000000000E-01   0.00000000000000E+00   0.00000000000000E+00   0.00000000000000E+00   0.00000000000000E+00
      0.00000000000000E+00   3.13228176627394E-17
      2.50000000000000E-01
      0.00000000000000E+00   0.00000000000000E+00   0.00000000000000E+00   0.00000000000000E+00  -1.81938219953237E-13
     -1.64041789850284E-13  -3.45980009803520E-13  -1.19289369296160E-17   1.00000000000000E-01   1.00000000000000E-01
      0.00000000000000E+00   0.00000000000000E+00   0.00000000000000E+00   0.00000000000000E+00   0.00000000000000E+00
     -2.98354147775966E-17   9.00000000000000E-02   9.00000000000000E-02   0.00000000000000E+00   0.00000000000000E+00
      3.42378264736288E-13   3.60174506723226E-15   3.45980009803520E-13   1.14905907650192E-17   2.10000000000000E-01
      2.10000000000000E-01   0.00000000000000E+00   0.00000000000000E+00   0.00000000000000E+00   0.00000000000000E+00
      0.00000000000000E+00   3.02737609421934E-17
      2.60000000000000E-01
      0.00000000000000E+00   0.00000000000000E+00   0.00000000000000E+00   0.00000000000000E+00  -1.83163106242590E-13
     -1.51396910185885E-13  -3.34560016428475E-13  -1.19726522501378E-17   1.04000000000000E-01   1.04000000000000E-01
      0.00000000000000E+00   0.00000000000000E+00   0.00000000000000E+00   0.00000000000000E+00   0.00000000000000E+00
     -2.86986809985284E-17   9.00000000000000E-02   9.00000000000000E-02   0.00000000000000E+00   0.00000000000000E+00
      3.30983595002640E-13   3.57642142583498E-15   3.34560016428475E-13   1.14466267206790E-17   2.10000000000000E-01
      2.10000000000000E-01   0.00000000000000E+00   0.00000000000000E+00   0.00000000000000E+00   0.00000000000000E+00
      0.00000000000000E+00   2.92247065279872E-17
      2.70000000000000E-01
      0.00000000000000E+00   0.00000000000000E+00   0.00000000000000E+00   0.00000000000000E+00  -1.84390363353317E-13
     -1.40347642709013E-13  -3.24738006062330E-13  -1.20163476824137E-17   1.08000000000000E-01   1.08000000000000E-01
      0.00000000000000E+00   0.00000000000000E+00   0.00000000000000E+00   0.00000000000000E+00   0.00000000000000E+00
     -2.75619444503774E-17   9.00000000000000E-02   9.00000000000000E-02   0.00000000000000E+00   0.00000000000000E+00
      3.21186856332063E-13   3.55114973026687E-15   3.24738006062330E-13   1.14026372481561E-17   2.10000000000000E-01
      2.10000000000000E-01   0.00000000000000E+00   0.00000000000000E+00   0.00000000000000E+00   0.00000000000000E+00
      0.00000000000000E+00   2.81756548846350E-17
      2.80000000000000E-01
      0.00000000000000E+00   0.00000000000000E+00   0.00000000000000E+00   0.00000000000000E+00  -1.85619966113308E-13
     -1.30697894117096E-13  -3.16317860230404E-13  -1.20600236213042E-17   1.12000000000000E-01   1.12000000000000E-01
      0.00000000000000E+00   0.00000000000000E+00   0.00000000000000E+00   0.00000000000000E+00   0.00000000000000E+00
     -2.64252046667651E-17   9.00000000000000E-02   9.00000000000000E-02   0.00000000000000E+00   0.00000000000000E+00
      3.12791929336638E-13   3.52593089376586E-15   3.16317860230404E-13   1.13586218098138E-17   2.10000000000000E-01
      2.10000000000000E-01   0.00000000000000E+00   0.00000000000000E+00   0.00000000000000E+00   0.00000000000000E+00
      0.00000000000000E+00   2.71266064782555E-17
      2.90000000000000E-01
      0.00000000000000E+00   0.00000000000000E+00   0.00000000000000E+00   0.00000000000000E+00  -1.86851889548169E-13
     -1.22276867504806E-13  -3.09128757052975E-13  -1.21036804528514E-17   1.16000000000000E-01   1.16000000000000E-01
      0.00000000000000E+00   0.00000000000000E+00   0.00000000000000E+00   0.00000000000000E+00   0.00000000000000E+00
     -2.52884611794351E-17   9.00000000000000E-02   9.00000000000000E-02   0.00000000000000E+00   0.00000000000000E+00
      3.05627991253930E-13   3.50076579904450E-15   3.09128757052975E-13   1.13145798554394E-17   2.10000000000000E-01
      2.10000000000000E-01   0.00000000000000E+00   0.00000000000000E+00   0.00000000000000E+00   0.00000000000000E+00
      0.00000000000000E+00   2.60775617768471E-17
      3.00000000000000E-01
      0.00000000000000E+00   0.00000000000000E+00   0.00000000000000E+00   0.00000000000000E+00  -1.88086108886935E-13
     -1.14936487923115E-13  -3.03022596810050E-13  -1.21473185544903E-17   1.20000000000000E-01   1.20000000000000E-01
      0.00000000000000E+00   0.00000000000000E+00   0.00000000000000E+00   0.00000000000000E+00   0.00000000000000E+00
     -2.41517135179743E-17   9.00000000000000E-02   9.00000000000000E-02   0.00000000000000E+00   0.00000000000000E+00
      2.99546941444425E-13   3.47565536562442E-15   3.03022596810050E-13   1.12705108219005E-17   2.10000000000000E-01
      2.10000000000000E-01   0.00000000000000E+00   0.00000000000000E+00   0.00000000000000E+00   0.00000000000000E+00
      0.00000000000000E+00   2.50285212505642E-17
      3.10000000000000E-01
      0.00000000000000E+00   0.00000000000000E+00   0.00000000000000E+00   0.00000000000000E+00  -1.89322599571437E-13
     -1.08549088223713E-13  -2.97871687795150E-13  -1.21909382952548E-17   1.24000000000000E-01   1.24000000000000E-01
      0.00000000000000E+00   0.00000000000000E+00   0.00000000000000E+00   0.00000000000000E+00   0.00000000000000E+00
     -2.30149612095320E-17   9.00000000000000E-02   9.00000000000000E-02   0.00000000000000E+00   0.00000000000000E+00
      2.94421087292001E-13   3.45060050314909E-15   2.97871687795150E-13   1.12264141327917E-17   2.10000000000000E-01
      2.10000000000000E-01   0.00000000000000E+00   0.00000000000000E+00   0.00000000000000E+00   0.00000000000000E+00
      0.00000000000000E+00   2.39794853719951E-17
      3.20000000000000E-01
      0.00000000000000E+00   0.00000000000000E+00   0.00000000000000E+00   0.00000000000000E+00  -1.90561337249966E-13
     -1.03005340749393E-13  -2.93566677999359E-13  -1.22345400359789E-17   1.28000000000000E-01   1.28000000000000E-01
      0.00000000000000E+00   0.00000000000000E+00   0.00000000000000E+00   0.00000000000000E+00   0.00000000000000E+00
     -2.18782037785366E-17   9.00000000000000E-02   9.00000000000000E-02   0.00000000000000E+00   0.00000000000000E+00
      2.90141075873026E-13   3.42560212633371E-15   2.93566677999360E-13   1.11822891980735E-17   2.10000000000000E-01
      2.10000000000000E-01   0.00000000000000E+00   0.00000000000000E+00   0.00000000000000E+00   0.00000000000000E+00
      0.00000000000000E+00   2.29304546164421E-17
      3.30000000000000E-01
      0.00000000000000E+00   0.00000000000000E+00   0.00000000000000E+00   0.00000000000000E+00  -1.91802297789310E-13
     -9.82124209443886E-14  -2.90014718733699E-13  -1.22781241294925E-17   1.32000000000000E-01   1.32000000000000E-01
      0.00000000000000E+00   0.00000000000000E+00   0.00000000000000E+00   0.00000000000000E+00   0.00000000000000E+00
     -2.07414407464115E-17   9.00000000000000E-02   9.00000000000000E-02   0.00000000000000E+00   0.00000000000000E+00
      2.86614057585603E-13   3.40066114809592E-15   2.90014718733699E-13   1.11381354137001E-17   2.10000000000000E-01
      2.10000000000000E-01   0.00000000000000E+00   0.00000000000000E+00   0.00000000000000E+00   0.00000000000000E+00
      0.00000000000000E+00   2.18814294622039E-17
      3.40000000000000E-01
      0.00000000000000E+00   0.00000000000000E+00   0.00000000000000E+00   0.00000000000000E+00  -1.93045457271586E-13
     -9.40923898816815E-14  -2.87137847153268E-13  -1.23216909208128E-17   1.36000000000000E-01   1.36000000000000E-01
      0.00000000000000E+00   0.00000000000000E+00   0.00000000000000E+00   0.00000000000000E+00   0.00000000000000E+00
     -1.96046716312860E-17   9.00000000000000E-02   9.00000000000000E-02   0.00000000000000E+00   0.00000000000000E+00
      2.83762068680741E-13   3.37577847252725E-15   2.87137847153268E-13   1.10939521612384E-17   2.10000000000000E-01
      2.10000000000000E-01   0.00000000000000E+00   0.00000000000000E+00   0.00000000000000E+00   0.00000000000000E+00
      0.00000000000000E+00   2.08324103908604E-17
      3.50000000000000E-01
      0.00000000000000E+00   0.00000000000000E+00   0.00000000000000E+00   0.00000000000000E+00  -1.94290792002213E-13
     -9.05807835684832E-14  -2.84871575570696E-13  -1.23652407473307E-17   1.40000000000000E-01   1.40000000000000E-01
      0.00000000000000E+00   0.00000000000000E+00   0.00000000000000E+00   0.00000000000000E+00   0.00000000000000E+00
     -1.84678959477056E-17   9.00000000000000E-02   9.00000000000000E-02   0.00000000000000E+00   0.00000000000000E+00
      2.81520620556463E-13   3.35095501423340E-15   2.84871575570696E-13   1.10497388074760E-17   2.10000000000000E-01
      2.10000000000000E-01   0.00000000000000E+00   0.00000000000000E+00   0.00000000000000E+00   0.00000000000000E+00
      0.00000000000000E+00   1.97833978875604E-17
      3.60000000000000E-01
      0.00000000000000E+00   0.00000000000000E+00   0.00000000000000E+00   0.00000000000000E+00  -1.95538278508333E-13
     -8.76253976875170E-14  -2.83163676195850E-13  -1.24087739389929E-17   1.44000000000000E-01   1.44000000000000E-01
      0.00000000000000E+00   0.00000000000000E+00   0.00000000000000E+00   0.00000000000000E+00   0.00000000000000E+00
     -1.73311132063373E-17   9.00000000000000E-02   9.00000000000000E-02   0.00000000000000E+00   0.00000000000000E+00
      2.79837484525494E-13   3.32619167035636E-15   2.83163676195850E-13   1.10054947040180E-17   2.10000000000000E-01
      2.10000000000000E-01   0.00000000000000E+00   0.00000000000000E+00   0.00000000000000E+00   0.00000000000000E+00
      0.00000000000000E+00   1.87343924413122E-17
      3.70000000000000E-01
      0.00000000000000E+00   0.00000000000000E+00   0.00000000000000E+00   0.00000000000000E+00  -1.96787893537166E-13