DF-ISE text

Info {
  version   = 1.0
  type      = xyplot
  datasets  = [
    "time"
    "source OuterVoltage" "source InnerVoltage" "source QuasiFermiPotential" "source DisplacementCurrent" "source eCurrent"
    "source hCurrent" "source TotalCurrent" "source Charge" "topGate OuterVoltage" "topGate InnerVoltage"
    "topGate QuasiFermiPotential" "topGate DisplacementCurrent" "topGate eCurrent" "topGate hCurrent" "topGate TotalCurrent"
    "topGate Charge" "drain OuterVoltage" "drain InnerVoltage" "drain QuasiFermiPotential" "drain DisplacementCurrent"
    "drain eCurrent" "drain hCurrent" "drain TotalCurrent" "drain Charge" "bottomGate OuterVoltage"
    "bottomGate InnerVoltage" "bottomGate QuasiFermiPotential" "bottomGate DisplacementCurrent" "bottomGate eCurrent" "bottomGate hCurrent"
    "bottomGate TotalCurrent" "bottomGate Charge" ]
  functions = [
    Time
    OuterVoltage InnerVoltage QuasiFermiPotential DisplacementCurrent eCurrent
    hCurrent TotalCurrent Charge OuterVoltage InnerVoltage
    QuasiFermiPotential DisplacementCurrent eCurrent hCurrent TotalCurrent
    Charge OuterVoltage InnerVoltage QuasiFermiPotential DisplacementCurrent
    eCurrent hCurrent TotalCurrent Charge OuterVoltage
    InnerVoltage QuasiFermiPotential DisplacementCurrent eCurrent hCurrent
    TotalCurrent Charge ]
}

Data {
      1.00000000000000E-02
      0.00000000000000E+00   0.00000000000000E+00   0.00000000000000E+00   0.00000000000000E+00  -2.00380701469947E-13
     -3.88262181350539E-11  -3.90265988365238E-11  -1.24087929777235E-17   4.00000000000000E-03   4.00000000000000E-03
      0.00000000000000E+00   0.00000000000000E+00   0.00000000000000E+00   0.00000000000000E+00   0.00000000000000E+00
     -9.42735513879319E-17   1.30000000000000E-01   1.30000000000000E-01   0.00000000000000E+00   0.00000000000000E+00
      3.90227341352092E-11   3.86470131462294E-15   3.90265988365238E-11   1.18852164743784E-17   3.50000000000000E-01
      3.50000000000000E-01   0.00000000000000E+00   0.00000000000000E+00   0.00000000000000E+00   0.00000000000000E+00
      0.00000000000000E+00   9.47971278912770E-17
      2.00000000000000E-02
      0.00000000000000E+00   0.00000000000000E+00   0.00000000000000E+00   0.00000000000000E+00  -2.01665280467544E-13
     -3.65324769077770E-11  -3.67341421882445E-11  -1.24523098773854E-17   8.00000000000000E-03   8.00000000000000E-03
      0.00000000000000E+00   0.00000000000000E+00   0.00000000000000E+00   0.00000000000000E+00   0.00000000000000E+00
     -9.31370202977427E-17   1.30000000000000E-01   1.30000000000000E-01   0.00000000000000E+00   0.00000000000000E+00
      3.67303020306231E-11   3.84015762141011E-15   3.67341421882445E-11   1.18414593685981E-17   3.50000000000000E-01
      3.50000000000000E-01   0.00000000000000E+00   0.00000000000000E+00   0.00000000000000E+00   0.00000000000000E+00
      0.00000000000000E+00   9.37478708065300E-17
      3.00000000000000E-02
      0.00000000000000E+00   0.00000000000000E+00   0.00000000000000E+00   0.00000000000000E+00  -2.02951699306162E-13
     -3.43994219311619E-11  -3.46023736304680E-11  -1.24958107801541E-17   1.20000000000000E-02   1.20000000000000E-02
      0.00000000000000E+00   0.00000000000000E+00   0.00000000000000E+00   0.00000000000000E+00   0.00000000000000E+00
     -9.20004866389920E-17   1.30000000000000E-01   1.30000000000000E-01   0.00000000000000E+00   0.00000000000000E+00
      3.45985579400062E-11   3.81569046183084E-15   3.46023736304681E-11   1.17976811234718E-17   3.50000000000000E-01
      3.50000000000000E-01   0.00000000000000E+00   0.00000000000000E+00   0.00000000000000E+00   0.00000000000000E+00
      0.00000000000000E+00   9.26986162956744E-17
      4.00000000000000E-02
      0.00000000000000E+00   0.00000000000000E+00   0.00000000000000E+00   0.00000000000000E+00  -2.04239961675402E-13
     -3.24159384050433E-11  -3.26201783667187E-11  -1.25392959947752E-17   1.60000000000000E-02   1.60000000000000E-02
      0.00000000000000E+00   0.00000000000000E+00   0.00000000000000E+00   0.00000000000000E+00   0.00000000000000E+00
     -9.08639500390158E-17   1.30000000000000E-01   1.30000000000000E-01   0.00000000000000E+00   0.00000000000000E+00
      3.26163870708970E-11   3.79129582170089E-15   3.26201783667187E-11   1.17538813025225E-17   3.50000000000000E-01
      3.50000000000000E-01   0.00000000000000E+00   0.00000000000000E+00   0.00000000000000E+00   0.00000000000000E+00
      0.00000000000000E+00   9.16493647312685E-17
      5.00000000000000E-02
      0.00000000000000E+00   0.00000000000000E+00   0.00000000000000E+00   0.00000000000000E+00  -2.05530069211131E-13
     -3.05715905416514E-11  -3.07771206108626E-11  -1.25827658232308E-17   2.00000000000000E-02   2.00000000000000E-02
      0.00000000000000E+00   0.00000000000000E+00   0.00000000000000E+00   0.00000000000000E+00   0.00000000000000E+00
     -8.97274101235474E-17   1.30000000000000E-01   1.30000000000000E-01   0.00000000000000E+00   0.00000000000000E+00
      3.07733536412239E-11   3.76696963862766E-15   3.07771206108625E-11   1.17100594592794E-17   3.50000000000000E-01
      3.50000000000000E-01   0.00000000000000E+00   0.00000000000000E+00   0.00000000000000E+00   0.00000000000000E+00
      0.00000000000000E+00   9.06001164874987E-17
      6.00000000000000E-02
      0.00000000000000E+00   0.00000000000000E+00   0.00000000000000E+00   0.00000000000000E+00  -2.06822021696521E-13
     -2.88565884515090E-11  -2.90634104732055E-11  -1.26262205609007E-17   2.40000000000000E-02   2.40000000000000E-02
      0.00000000000000E+00   0.00000000000000E+00   0.00000000000000E+00   0.00000000000000E+00   0.00000000000000E+00
     -8.85908665165026E-17   1.30000000000000E-01   1.30000000000000E-01   0.00000000000000E+00   0.00000000000000E+00
      2.90596677653745E-11   3.74270783099631E-15   2.90634104732055E-11   1.16662151370103E-17   3.50000000000000E-01
      3.50000000000000E-01   0.00000000000000E+00   0.00000000000000E+00   0.00000000000000E+00   0.00000000000000E+00
      0.00000000000000E+00   8.95508719403931E-17
      7.00000000000000E-02
      0.00000000000000E+00   0.00000000000000E+00   0.00000000000000E+00   0.00000000000000E+00  -2.08115817227180E-13
     -2.72617561936933E-11  -2.74698720109205E-11  -1.26696604967190E-17   2.80000000000000E-02   2.80000000000000E-02
      0.00000000000000E+00   0.00000000000000E+00   0.00000000000000E+00   0.00000000000000E+00   0.00000000000000E+00
     -8.74543188397636E-17   1.30000000000000E-01   1.30000000000000E-01   0.00000000000000E+00   0.00000000000000E+00
      2.74661535046169E-11   3.71850630356260E-15   2.74698720109204E-11   1.16223478684472E-17   3.50000000000000E-01
      3.50000000000000E-01   0.00000000000000E+00   0.00000000000000E+00   0.00000000000000E+00   0.00000000000000E+00
      0.00000000000000E+00   8.85016314680354E-17
      8.00000000000000E-02
      0.00000000000000E+00   0.00000000000000E+00   0.00000000000000E+00   0.00000000000000E+00  -2.09411452377678E-13
     -2.57785009566152E-11  -2.59879124089929E-11  -1.27130859133270E-17   3.20000000000000E-02   3.20000000000000E-02
      0.00000000000000E+00   0.00000000000000E+00   0.00000000000000E+00   0.00000000000000E+00   0.00000000000000E+00
     -8.63177667129621E-17   1.30000000000000E-01   1.30000000000000E-01   0.00000000000000E+00   0.00000000000000E+00
      2.59842180480166E-11   3.69436097626768E-15   2.59879124089928E-11   1.15784571755066E-17   3.50000000000000E-01
      3.50000000000000E-01   0.00000000000000E+00   0.00000000000000E+00   0.00000000000000E+00   0.00000000000000E+00
      0.00000000000000E+00   8.74523954507825E-17
      9.00000000000000E-02
      0.00000000000000E+00   0.00000000000000E+00   0.00000000000000E+00   0.00000000000000E+00  -2.10708922347789E-13
     -2.43987833386408E-11  -2.46094922609886E-11  -1.27564970872221E-17   3.60000000000000E-02   3.60000000000000E-02
      0.00000000000000E+00   0.00000000000000E+00   0.00000000000000E+00   0.00000000000000E+00   0.00000000000000E+00
     -8.51812097532601E-17   1.30000000000000E-01   1.30000000000000E-01   0.00000000000000E+00   0.00000000000000E+00
      2.46058219931767E-11   3.67026781192137E-15   2.46094922609886E-11   1.15345425690014E-17   3.50000000000000E-01
      3.50000000000000E-01   0.00000000000000E+00   0.00000000000000E+00   0.00000000000000E+00   0.00000000000000E+00
      0.00000000000000E+00   8.64031642714809E-17
      1.00000000000000E-01
      0.00000000000000E+00   0.00000000000000E+00   0.00000000000000E+00   0.00000000000000E+00  -2.12008221093344E-13
     -2.31150887006928E-11  -2.33270969217861E-11  -1.27998942889034E-17   4.00000000000000E-02   4.00000000000000E-02
      0.00000000000000E+00   0.00000000000000E+00   0.00000000000000E+00   0.00000000000000E+00   0.00000000000000E+00
     -8.40446475751303E-17   1.30000000000000E-01   1.30000000000000E-01   0.00000000000000E+00   0.00000000000000E+00
      2.33234506989623E-11   3.64622282384969E-15   2.33270969217861E-11   1.14906035483465E-17   3.50000000000000E-01
      3.50000000000000E-01   0.00000000000000E+00   0.00000000000000E+00   0.00000000000000E+00   0.00000000000000E+00
      0.00000000000000E+00   8.53539383156872E-17
      1.10000000000000E-01
      0.00000000000000E+00   0.00000000000000E+00   0.00000000000000E+00   0.00000000000000E+00  -2.13309341453276E-13
     -2.19203995654024E-11  -2.21337089068557E-11  -1.28432777830133E-17   4.40000000000000E-02   4.40000000000000E-02
      0.00000000000000E+00   0.00000000000000E+00   0.00000000000000E+00   0.00000000000000E+00   0.00000000000000E+00
     -8.29080797901328E-17   1.30000000000000E-01   1.30000000000000E-01   0.00000000000000E+00   0.00000000000000E+00
      2.21300866847382E-11   3.62222211743870E-15   2.21337089068557E-11   1.14466396012570E-17   3.50000000000000E-01
      3.50000000000000E-01   0.00000000000000E+00   0.00000000000000E+00   0.00000000000000E+00   0.00000000000000E+00
      0.00000000000000E+00   8.43047179718892E-17
      1.20000000000000E-01
      0.00000000000000E+00   0.00000000000000E+00   0.00000000000000E+00   0.00000000000000E+00  -2.14612275262457E-13
     -2.08081690392635E-11  -2.10227813145260E-11  -1.28866478284757E-17   4.80000000000000E-02   4.80000000000000E-02
      0.00000000000000E+00   0.00000000000000E+00   0.00000000000000E+00   0.00000000000000E+00   0.00000000000000E+00
     -8.17715060066916E-17   1.30000000000000E-01   1.30000000000000E-01   0.00000000000000E+00   0.00000000000000E+00
      2.10191830526292E-11   3.59826189674461E-15   2.10227813145259E-11   1.14026502034380E-17   3.50000000000000E-01
      3.50000000000000E-01   0.00000000000000E+00   0.00000000000000E+00   0.00000000000000E+00   0.00000000000000E+00
      0.00000000000000E+00   8.32555036317294E-17
      1.30000000000000E-01
      0.00000000000000E+00   0.00000000000000E+00   0.00000000000000E+00   0.00000000000000E+00  -2.15917013447339E-13
     -1.97722952359890E-11  -1.99882122494363E-11  -1.29300046786310E-17   5.20000000000000E-02   5.20000000000000E-02
      0.00000000000000E+00   0.00000000000000E+00   0.00000000000000E+00   0.00000000000000E+00   0.00000000000000E+00
     -8.06349258298674E-17   1.30000000000000E-01   1.30000000000000E-01   0.00000000000000E+00   0.00000000000000E+00
      1.99846379109455E-11   3.57433849085852E-15   1.99882122494363E-11   1.13586348182672E-17   3.50000000000000E-01
      3.50000000000000E-01   0.00000000000000E+00   0.00000000000000E+00   0.00000000000000E+00   0.00000000000000E+00
      0.00000000000000E+00   8.22062956902312E-17
      1.40000000000000E-01
      0.00000000000000E+00   0.00000000000000E+00   0.00000000000000E+00   0.00000000000000E+00  -2.17223546130477E-13
     -1.88070966805327E-11  -1.90243202266631E-11  -1.29733485813672E-17   5.60000000000000E-02   5.60000000000000E-02
      0.00000000000000E+00   0.00000000000000E+00   0.00000000000000E+00   0.00000000000000E+00   0.00000000000000E+00
     -7.94983388611289E-17   1.30000000000000E-01   1.30000000000000E-01   0.00000000000000E+00   0.00000000000000E+00
      1.90207697782838E-11   3.55044837931388E-15   1.90243202266631E-11   1.13145928964685E-17   3.50000000000000E-01
      3.50000000000000E-01   0.00000000000000E+00   0.00000000000000E+00   0.00000000000000E+00   0.00000000000000E+00
      0.00000000000000E+00   8.11570945460276E-17
      1.50000000000000E-01
      0.00000000000000E+00   0.00000000000000E+00   0.00000000000000E+00   0.00000000000000E+00  -2.18531862708859E-13
     -1.79072886742928E-11  -1.81258205370016E-11  -1.30166797792484E-17   6.00000000000000E-02   6.00000000000000E-02
      0.00000000000000E+00   0.00000000000000E+00   0.00000000000000E+00   0.00000000000000E+00   0.00000000000000E+00
     -7.83617446981207E-17   1.30000000000000E-01   1.30000000000000E-01   0.00000000000000E+00   0.00000000000000E+00
      1.81222939487954E-11   3.52658820617073E-15   1.81258205370016E-11   1.12705238757773E-17   3.50000000000000E-01
      3.50000000000000E-01   0.00000000000000E+00   0.00000000000000E+00   0.00000000000000E+00   0.00000000000000E+00
      0.00000000000000E+00   8.01079006015918E-17
      1.60000000000000E-01
      0.00000000000000E+00   0.00000000000000E+00   0.00000000000000E+00   0.00000000000000E+00  -2.19841951935899E-13
     -1.70679606028477E-11  -1.72878025547836E-11  -1.30599985096396E-17   6.40000000000000E-02   6.40000000000000E-02
      0.00000000000000E+00   0.00000000000000E+00   0.00000000000000E+00   0.00000000000000E+00   0.00000000000000E+00
     -7.72251429344289E-17   1.30000000000000E-01   1.30000000000000E-01   0.00000000000000E+00   0.00000000000000E+00
      1.72842997999807E-11   3.50275480292838E-15   1.72878025547836E-11   1.12264271805965E-17   3.50000000000000E-01
      3.50000000000000E-01   0.00000000000000E+00   0.00000000000000E+00   0.00000000000000E+00   0.00000000000000E+00
      0.00000000000000E+00   7.90587142634719E-17
      1.70000000000000E-01
      0.00000000000000E+00   0.00000000000000E+00   0.00000000000000E+00   0.00000000000000E+00  -2.21153801990067E-13
     -1.62845541681225E-11  -1.65057079701126E-11  -1.31033050048286E-17   6.80000000000000E-02   6.80000000000000E-02
      0.00000000000000E+00   0.00000000000000E+00   0.00000000000000E+00   0.00000000000000E+00   0.00000000000000E+00
     -7.60885331593430E-17   1.30000000000000E-01   1.30000000000000E-01   0.00000000000000E+00   0.00000000000000E+00
      1.65022290249083E-11   3.47894520422705E-15   1.65057079701126E-11   1.11823022216436E-17   3.50000000000000E-01
      3.50000000000000E-01   0.00000000000000E+00   0.00000000000000E+00   0.00000000000000E+00   0.00000000000000E+00
      0.00000000000000E+00   7.80095359425280E-17
      1.80000000000000E-01
      0.00000000000000E+00   0.00000000000000E+00   0.00000000000000E+00   0.00000000000000E+00  -2.22467400548370E-13
     -1.55528425273150E-11  -1.57753099278634E-11  -1.31465994921451E-17   7.20000000000000E-02   7.20000000000000E-02
      0.00000000000000E+00   0.00000000000000E+00   0.00000000000000E+00   0.00000000000000E+00   0.00000000000000E+00
     -7.49519149576153E-17   1.30000000000000E-01   1.30000000000000E-01   0.00000000000000E+00   0.00000000000000E+00
      1.57718547711931E-11   3.45515667024370E-15   1.57753099278634E-11   1.11381483955877E-17   3.50000000000000E-01
      3.50000000000000E-01   0.00000000000000E+00   0.00000000000000E+00   0.00000000000000E+00   0.00000000000000E+00
      0.00000000000000E+00   7.69603660541728E-17
      1.90000000000000E-01
      0.00000000000000E+00   0.00000000000000E+00   0.00000000000000E+00   0.00000000000000E+00  -2.23782734835089E-13
     -1.48689103211147E-11  -1.50926930559498E-11  -1.31898821940763E-17   7.60000000000000E-02   7.60000000000000E-02
      0.00000000000000E+00   0.00000000000000E+00   0.00000000000000E+00   0.00000000000000E+00   0.00000000000000E+00
     -7.38152879092157E-17   1.30000000000000E-01   1.30000000000000E-01   0.00000000000000E+00   0.00000000000000E+00
      1.50892616692547E-11   3.43138669514293E-15   1.50926930559498E-11   1.10939650846764E-17   3.50000000000000E-01
      3.50000000000000E-01   0.00000000000000E+00   0.00000000000000E+00   0.00000000000000E+00   0.00000000000000E+00
      0.00000000000000E+00   7.59112050186155E-17
      2.00000000000000E-01
      0.00000000000000E+00   0.00000000000000E+00   0.00000000000000E+00   0.00000000000000E+00  -2.25099791686038E-13
     -1.42291345738973E-11  -1.44542343655833E-11  -1.32331533283798E-17   8.00000000000000E-02   8.00000000000000E-02
      0.00000000000000E+00   0.00000000000000E+00   0.00000000000000E+00   0.00000000000000E+00   0.00000000000000E+00
     -7.26786515890838E-17   1.30000000000000E-01   1.30000000000000E-01   0.00000000000000E+00   0.00000000000000E+00
      1.44508267325546E-11   3.40763302878908E-15   1.44542343655834E-11   1.10497516563533E-17   3.50000000000000E-01
      3.50000000000000E-01   0.00000000000000E+00   0.00000000000000E+00   0.00000000000000E+00   0.00000000000000E+00
      0.00000000000000E+00   7.48620532611103E-17
      2.10000000000000E-01
      0.00000000000000E+00   0.00000000000000E+00   0.00000000000000E+00   0.00000000000000E+00  -2.26418557595332E-13
     -1.36301664485125E-11  -1.38565850061078E-11  -1.32764131081945E-17   8.40000000000000E-02   8.40000000000000E-02
      0.00000000000000E+00   0.00000000000000E+00   0.00000000000000E+00   0.00000000000000E+00   0.00000000000000E+00
     -7.15420055668763E-17   1.30000000000000E-01   1.30000000000000E-01   0.00000000000000E+00   0.00000000000000E+00
      1.38532011124259E-11   3.38389368194024E-15   1.38565850061078E-11   1.10055074628630E-17   3.50000000000000E-01
      3.50000000000000E-01   0.00000000000000E+00   0.00000000000000E+00   0.00000000000000E+00   0.00000000000000E+00
      0.00000000000000E+00   7.38129112122078E-17
      2.20000000000000E-01
      0.00000000000000E+00   0.00000000000000E+00   0.00000000000000E+00   0.00000000000000E+00  -2.27739018753556E-13
     -1.30689138382398E-11  -1.32966528569934E-11  -1.33196617421472E-17   8.80000000000000E-02   8.80000000000000E-02
      0.00000000000000E+00   0.00000000000000E+00   0.00000000000000E+00   0.00000000000000E+00   0.00000000000000E+00
     -7.04053494067104E-17   1.30000000000000E-01   1.30000000000000E-01   0.00000000000000E+00   0.00000000000000E+00
      1.32932926900511E-11   3.36016694221962E-15   1.32966528569933E-11   1.09612318408465E-17   3.50000000000000E-01
      3.50000000000000E-01   0.00000000000000E+00   0.00000000000000E+00   0.00000000000000E+00   0.00000000000000E+00
      0.00000000000000E+00   7.27637793080111E-17
      2.30000000000000E-01
      0.00000000000000E+00   0.00000000000000E+00   0.00000000000000E+00   0.00000000000000E+00  -2.29061161102509E-13
     -1.25425247782654E-11  -1.27715859393679E-11  -1.33628994344581E-17   9.20000000000000E-02   9.20000000000000E-02
      0.00000000000000E+00   0.00000000000000E+00   0.00000000000000E+00   0.00000000000000E+00   0.00000000000000E+00
     -6.92686826669027E-17   1.30000000000000E-01   1.30000000000000E-01   0.00000000000000E+00   0.00000000000000E+00
      1.27682494879876E-11   3.33645138027069E-15   1.27715859393679E-11   1.09169241109237E-17   3.50000000000000E-01
      3.50000000000000E-01   0.00000000000000E+00   0.00000000000000E+00   0.00000000000000E+00   0.00000000000000E+00
      0.00000000000000E+00   7.17146579904371E-17
      2.40000000000000E-01
      0.00000000000000E+00   0.00000000000000E+00   0.00000000000000E+00   0.00000000000000E+00  -2.30384970365033E-13
     -1.20483716588363E-11  -1.22787566292013E-11  -1.34061263850427E-17   9.60000000000000E-02   9.60000000000000E-02
      0.00000000000000E+00   0.00000000000000E+00   0.00000000000000E+00   0.00000000000000E+00   0.00000000000000E+00
     -6.81320048997031E-17   1.30000000000000E-01   1.30000000000000E-01   0.00000000000000E+00   0.00000000000000E+00
      1.22754438833436E-11   3.31274585774497E-15   1.22787566292014E-11   1.08725835772652E-17   3.50000000000000E-01
      3.50000000000000E-01   0.00000000000000E+00   0.00000000000000E+00   0.00000000000000E+00   0.00000000000000E+00
      0.00000000000000E+00   7.06655477074806E-17
      2.50000000000000E-01
      0.00000000000000E+00   0.00000000000000E+00   0.00000000000000E+00   0.00000000000000E+00  -2.31710432075116E-13
     -1.15840362219618E-11  -1.18157466540369E-11  -1.34493427896116E-17   1.00000000000000E-01   1.00000000000000E-01
      0.00000000000000E+00   0.00000000000000E+00   0.00000000000000E+00   0.00000000000000E+00   0.00000000000000E+00
     -6.69953156510246E-17   1.30000000000000E-01   1.30000000000000E-01   0.00000000000000E+00   0.00000000000000E+00
      1.18124576045066E-11   3.28904953029918E-15   1.18157466540369E-11   1.08282095271501E-17   3.50000000000000E-01
      3.50000000000000E-01   0.00000000000000E+00   0.00000000000000E+00   0.00000000000000E+00   0.00000000000000E+00
      0.00000000000000E+00   6.96164489134860E-17
      2.60000000000000E-01
      0.00000000000000E+00   0.00000000000000E+00   0.00000000000000E+00   0.00000000000000E+00  -2.33037531619260E-13
     -1.11472953232542E-11  -1.13803328548735E-11  -1.34925488397674E-17   1.04000000000000E-01   1.04000000000000E-01
      0.00000000000000E+00   0.00000000000000E+00   0.00000000000000E+00   0.00000000000000E+00   0.00000000000000E+00
     -6.58586144601662E-17   1.30000000000000E-01   1.30000000000000E-01   0.00000000000000E+00   0.00000000000000E+00
      1.13770674930210E-11   3.26536185248242E-15   1.13803328548735E-11   1.07838012305119E-17   3.50000000000000E-01
      3.50000000000000E-01   0.00000000000000E+00   0.00000000000000E+00   0.00000000000000E+00   0.00000000000000E+00
      0.00000000000000E+00   6.85673620694217E-17
      2.70000000000000E-01
      0.00000000000000E+00   0.00000000000000E+00   0.00000000000000E+00   0.00000000000000E+00  -2.34366254263366E-13
     -1.07361074401740E-11  -1.09704736944374E-11  -1.35357447231000E-17   1.08000000000000E-01   1.08000000000000E-01
      0.00000000000000E+00   0.00000000000000E+00   0.00000000000000E+00   0.00000000000000E+00   0.00000000000000E+00
     -6.47219008595319E-17   1.30000000000000E-01   1.30000000000000E-01   0.00000000000000E+00   0.00000000000000E+00
      1.09672320118617E-11   3.24168257563323E-15   1.09704736944374E-11   1.07393579394703E-17   3.50000000000000E-01
      3.50000000000000E-01   0.00000000000000E+00   0.00000000000000E+00   0.00000000000000E+00   0.00000000000000E+00
      0.00000000000000E+00   6.75182876431616E-17
      2.80000000000000E-01
      0.00000000000000E+00   0.00000000000000E+00   0.00000000000000E+00   0.00000000000000E+00  -2.35696585164083E-13
     -1.03485999076592E-11  -1.05842964928232E-11  -1.35789306232785E-17   1.12000000000000E-01   1.12000000000000E-01
      0.00000000000000E+00   0.00000000000000E+00   0.00000000000000E+00   0.00000000000000E+00   0.00000000000000E+00
     -6.35851743743426E-17   1.30000000000000E-01   1.30000000000000E-01   0.00000000000000E+00   0.00000000000000E+00
      1.05810784810750E-11   3.21801174820546E-15   1.05842964928232E-11   1.06948788878494E-17   3.50000000000000E-01
      3.50000000000000E-01   0.00000000000000E+00   0.00000000000000E+00   0.00000000000000E+00   0.00000000000000E+00
      0.00000000000000E+00   6.64692261097717E-17
      2.90000000000000E-01
      0.00000000000000E+00   0.00000000000000E+00   0.00000000000000E+00   0.00000000000000E+00  -2.37028509413177E-13
     -9.98305686179640E-12  -1.02200853712096E-11  -1.36221067201419E-17   1.16000000000000E-01   1.16000000000000E-01
      0.00000000000000E+00   0.00000000000000E+00   0.00000000000000E+00   0.00000000000000E+00   0.00000000000000E+00
     -6.24484345223423E-17   1.30000000000000E-01   1.30000000000000E-01   0.00000000000000E+00   0.00000000000000E+00
      1.02168910215004E-11   3.19434970919729E-15   1.02200853712096E-11   1.06503632906806E-17   3.50000000000000E-01
      3.50000000000000E-01   0.00000000000000E+00   0.00000000000000E+00   0.00000000000000E+00   0.00000000000000E+00
      0.00000000000000E+00   6.54201779518035E-17
      3.00000000000000E-01
      0.00000000000000E+00   0.00000000000000E+00   0.00000000000000E+00   0.00000000000000E+00  -2.38362012040413E-13
     -9.63790787193063E-12  -9.87626988397104E-12  -1.36652731897862E-17   1.20000000000000E-01   1.20000000000000E-01
      0.00000000000000E+00   0.00000000000000E+00   0.00000000000000E+00   0.00000000000000E+00   0.00000000000000E+00
     -6.13116808134980E-17   1.30000000000000E-01   1.30000000000000E-01   0.00000000000000E+00   0.00000000000000E+00
      9.87309918688622E-12   3.17069708482411E-15   9.87626988397104E-12   1.06058103436916E-17   3.50000000000000E-01
      3.50000000000000E-01   0.00000000000000E+00   0.00000000000000E+00   0.00000000000000E+00   0.00000000000000E+00
      0.00000000000000E+00   6.43711436595926E-17
      3.10000000000000E-01
      0.00000000000000E+00   0.00000000000000E+00   0.00000000000000E+00   0.00000000000000E+00  -2.39697078040429E-13
     -9.31171724133178E-12  -9.55141431937221E-12  -1.37084302046511E-17   1.24000000000000E-01   1.24000000000000E-01
      0.00000000000000E+00   0.00000000000000E+00   0.00000000000000E+00   0.00000000000000E+00   0.00000000000000E+00
     -6.01749127496920E-17   1.30000000000000E-01   1.30000000000000E-01   0.00000000000000E+00   0.00000000000000E+00
      9.54826726459482E-12   3.14705477738859E-15   9.55141431937221E-12   1.05612192227778E-17   3.50000000000000E-01
      3.50000000000000E-01   0.00000000000000E+00   0.00000000000000E+00   0.00000000000000E+00   0.00000000000000E+00
      0.00000000000000E+00   6.33221237315655E-17
      3.20000000000000E-01
      0.00000000000000E+00   0.00000000000000E+00   0.00000000000000E+00   0.00000000000000E+00  -2.41033692400586E-13
     -9.00317395633625E-12  -9.24420764873683E-12  -1.37515779336029E-17   1.28000000000000E-01   1.28000000000000E-01
      0.00000000000000E+00   0.00000000000000E+00   0.00000000000000E+00   0.00000000000000E+00   0.00000000000000E+00
     -5.90381298244080E-17   1.30000000000000E-01   1.30000000000000E-01   0.00000000000000E+00   0.00000000000000E+00
      9.24108422477824E-12   3.12342395858880E-15   9.24420764873683E-12   1.05165890834591E-17   3.50000000000000E-01
      3.50000000000000E-01   0.00000000000000E+00   0.00000000000000E+00   0.00000000000000E+00   0.00000000000000E+00
      0.00000000000000E+00   6.22731186745518E-17
      3.30000000000000E-01
      0.00000000000000E+00   0.00000000000000E+00   0.00000000000000E+00   0.00000000000000E+00  -2.42371840089399E-13
     -8.71108226367255E-12  -8.95345410376195E-12  -1.37947165420160E-17   1.32000000000000E-01   1.32000000000000E-01
      0.00000000000000E+00   0.00000000000000E+00   0.00000000000000E+00   0.00000000000000E+00   0.00000000000000E+00
     -5.79013315224080E-17   1.30000000000000E-01   1.30000000000000E-01   0.00000000000000E+00   0.00000000000000E+00
      8.95035429770837E-12   3.09980605355750E-15   8.95345410376193E-12   1.04719190603183E-17   3.50000000000000E-01
      3.50000000000000E-01   0.00000000000000E+00   0.00000000000000E+00   0.00000000000000E+00   0.00000000000000E+00
      0.00000000000000E+00   6.12241290041057E-17
      3.40000000000000E-01
      0.00000000000000E+00   0.00000000000000E+00   0.00000000000000E+00   0.00000000000000E+00  -2.43711506099525E-13
     -8.43435285557045E-12  -8.67806436166998E-12  -1.38378461918529E-17   1.36000000000000E-01   1.36000000000000E-01
      0.00000000000000E+00   0.00000000000000E+00   0.00000000000000E+00   0.00000000000000E+00   0.00000000000000E+00
     -5.67645173194034E-17   1.30000000000000E-01   1.30000000000000E-01   0.00000000000000E+00   0.00000000000000E+00
      8.67498815893827E-12   3.07620273169947E-15   8.67806436166997E-12   1.04272082664222E-17   3.50000000000000E-01
      3.50000000000000E-01   0.00000000000000E+00   0.00000000000000E+00   0.00000000000000E+00   0.00000000000000E+00
      0.00000000000000E+00   6.01751552448340E-17
      3.50000000000000E-01
      0.00000000000000E+00   0.00000000000000E+00   0.00000000000000E+00   0.00000000000000E+00  -2.45052675432110E-13
     -8.17199464213107E-12  -8.41704731756318E-12  -1.38809670417412E-17   1.40000000000000E-01   1.40000000000000E-01
      0.00000000000000E+00   0.00000000000000E+00   0.00000000000000E+00   0.00000000000000E+00   0.00000000000000E+00
     -5.56276866817154E-17   1.30000000000000E-01   1.30000000000000E-01   0.00000000000000E+00   0.00000000000000E+00
      8.41399470167682E-12   3.05261588634895E-15   8.41704731756317E-12   1.03824557927242E-17   3.50000000000000E-01
      3.50000000000000E-01   0.00000000000000E+00   0.00000000000000E+00   0.00000000000000E+00   0.00000000000000E+00
      0.00000000000000E+00   5.91261979307324E-17
      3.60000000000000E-01
      0.00000000000000E+00   0.00000000000000E+00   0.00000000000000E+00   0.00000000000000E+00  -2.46395333140410E-13
     -7.92310709043845E-12  -8.16950242357886E-12  -1.39240792470495E-17   1.44000000000000E-01   1.44000000000000E-01
      0.00000000000000E+00   0.00000000000000E+00   0.00000000000000E+00   0.00000000000000E+00   0.00000000000000E+00
     -5.44908390659281E-17   1.30000000000000E-01   1.30000000000000E-01   0.00000000000000E+00   0.00000000000000E+00
      8.16647337595724E-12   3.02904762162365E-15   8.16950242357886E-12   1.03376607074468E-17   3.50000000000000E-01
      3.50000000000000E-01   0.00000000000000E+00   0.00000000000000E+00   0.00000000000000E+00   0.00000000000000E+00
      0.00000000000000E+00   5.80772576055308E-17
      3.70000000000000E-01
      0.00000000000000E+00   0.00000000000000E+00   0.00000000000000E+00   0.00000000000000E+00  -2.47739464310583E-13