DF-ISE text

Info {
  version   = 1.0
  type      = xyplot
  datasets  = [
    "time"
    "source OuterVoltage" "source InnerVoltage" "source QuasiFermiPotential" "source DisplacementCurrent" "source eCurrent"
    "source hCurrent" "source TotalCurrent" "source Charge" "topGate OuterVoltage" "topGate InnerVoltage"
    "topGate QuasiFermiPotential" "topGate DisplacementCurrent" "topGate eCurrent" "topGate hCurrent" "topGate TotalCurrent"
    "topGate Charge" "drain OuterVoltage" "drain InnerVoltage" "drain QuasiFermiPotential" "drain DisplacementCurrent"
    "drain eCurrent" "drain hCurrent" "drain TotalCurrent" "drain Charge" "bottomGate OuterVoltage"
    "bottomGate InnerVoltage" "bottomGate QuasiFermiPotential" "bottomGate DisplacementCurrent" "bottomGate eCurrent" "bottomGate hCurrent"
    "bottomGate TotalCurrent" "bottomGate Charge" ]
  functions = [
    Time
    OuterVoltage InnerVoltage QuasiFermiPotential DisplacementCurrent eCurrent
    hCurrent TotalCurrent Charge OuterVoltage InnerVoltage
    QuasiFermiPotential DisplacementCurrent eCurrent hCurrent TotalCurrent
    Charge OuterVoltage InnerVoltage QuasiFermiPotential DisplacementCurrent
    eCurrent hCurrent TotalCurrent Charge OuterVoltage
    InnerVoltage QuasiFermiPotential DisplacementCurrent eCurrent hCurrent
    TotalCurrent Charge ]
}

Data {
      1.00000000000000E-02
      0.00000000000000E+00   0.00000000000000E+00   0.00000000000000E+00   0.00000000000000E+00  -1.85233591593940E-13
     -2.05884106499262E-11  -2.07736442415201E-11  -1.18633542629051E-17   4.00000000000000E-03   4.00000000000000E-03
      0.00000000000000E+00   0.00000000000000E+00   0.00000000000000E+00   0.00000000000000E+00   0.00000000000000E+00
     -8.13749762633840E-17   1.50000000000000E-01   1.50000000000000E-01   0.00000000000000E+00   0.00000000000000E+00
      2.07691049342298E-11   4.53930729033774E-15   2.07736442415201E-11   1.28649801788360E-17   3.00000000000000E-01
      3.00000000000000E-01   0.00000000000000E+00   0.00000000000000E+00   0.00000000000000E+00   0.00000000000000E+00
      0.00000000000000E+00   8.03733503474531E-17
      2.00000000000000E-02
      0.00000000000000E+00   0.00000000000000E+00   0.00000000000000E+00   0.00000000000000E+00  -1.86492360869264E-13
     -1.89503884769974E-11  -1.91368808378666E-11  -1.19071001917385E-17   8.00000000000000E-03   8.00000000000000E-03
      0.00000000000000E+00   0.00000000000000E+00   0.00000000000000E+00   0.00000000000000E+00   0.00000000000000E+00
     -8.02385204790707E-17   1.50000000000000E-01   1.50000000000000E-01   0.00000000000000E+00   0.00000000000000E+00
      1.91323687295671E-11   4.51210829954522E-15   1.91368808378666E-11   1.28216027787555E-17   3.00000000000000E-01
      3.00000000000000E-01   0.00000000000000E+00   0.00000000000000E+00   0.00000000000000E+00   0.00000000000000E+00
      0.00000000000000E+00   7.93240178920537E-17
      3.00000000000000E-02
      0.00000000000000E+00   0.00000000000000E+00   0.00000000000000E+00   0.00000000000000E+00  -1.87753381659011E-13
     -1.74444008083664E-11  -1.76321541900254E-11  -1.19508256225088E-17   1.20000000000000E-02   1.20000000000000E-02
      0.00000000000000E+00   0.00000000000000E+00   0.00000000000000E+00   0.00000000000000E+00   0.00000000000000E+00
     -7.91020681771728E-17   1.50000000000000E-01   1.50000000000000E-01   0.00000000000000E+00   0.00000000000000E+00
      1.76276692342692E-11   4.48495575625193E-15   1.76321541900254E-11   1.27782118399265E-17   3.00000000000000E-01
      3.00000000000000E-01   0.00000000000000E+00   0.00000000000000E+00   0.00000000000000E+00   0.00000000000000E+00
      0.00000000000000E+00   7.82746819597552E-17
      4.00000000000000E-02
      0.00000000000000E+00   0.00000000000000E+00   0.00000000000000E+00   0.00000000000000E+00  -1.89016648013573E-13
     -1.60607751724147E-11  -1.62497918204283E-11  -1.19945309637976E-17   1.60000000000000E-02   1.60000000000000E-02
      0.00000000000000E+00   0.00000000000000E+00   0.00000000000000E+00   0.00000000000000E+00   0.00000000000000E+00
     -7.79656190203906E-17   1.50000000000000E-01   1.50000000000000E-01   0.00000000000000E+00   0.00000000000000E+00
      1.62453339713661E-11   4.45784906220969E-15   1.62497918204283E-11   1.27348070967432E-17   3.00000000000000E-01
      3.00000000000000E-01   0.00000000000000E+00   0.00000000000000E+00   0.00000000000000E+00   0.00000000000000E+00
      0.00000000000000E+00   7.72253428874450E-17
      5.00000000000000E-02
      0.00000000000000E+00   0.00000000000000E+00   0.00000000000000E+00   0.00000000000000E+00  -1.90282152387286E-13
     -1.47904405588420E-11  -1.49807227112293E-11  -1.20382166150370E-17   2.00000000000000E-02   2.00000000000000E-02
      0.00000000000000E+00   0.00000000000000E+00   0.00000000000000E+00   0.00000000000000E+00   0.00000000000000E+00
     -7.68291726732409E-17   1.50000000000000E-01   1.50000000000000E-01   0.00000000000000E+00   0.00000000000000E+00
      1.49762919235731E-11   4.43078765610946E-15   1.49807227112293E-11   1.26913882780480E-17   3.00000000000000E-01
      3.00000000000000E-01   0.00000000000000E+00   0.00000000000000E+00   0.00000000000000E+00   0.00000000000000E+00
      0.00000000000000E+00   7.61760010102299E-17
      6.00000000000000E-02
      0.00000000000000E+00   0.00000000000000E+00   0.00000000000000E+00   0.00000000000000E+00  -1.91549885802019E-13
     -1.36248984165944E-11  -1.38164483023964E-11  -1.20818829667296E-17   2.40000000000000E-02   2.40000000000000E-02
      0.00000000000000E+00   0.00000000000000E+00   0.00000000000000E+00   0.00000000000000E+00   0.00000000000000E+00
     -7.56927288018653E-17   1.50000000000000E-01   1.50000000000000E-01   0.00000000000000E+00   0.00000000000000E+00
      1.38120445314388E-11   4.40377095760895E-15   1.38164483023964E-11   1.26479551069689E-17   3.00000000000000E-01
      3.00000000000000E-01   0.00000000000000E+00   0.00000000000000E+00   0.00000000000000E+00   0.00000000000000E+00
      0.00000000000000E+00   7.51266566616259E-17
      7.00000000000000E-02
      0.00000000000000E+00   0.00000000000000E+00   0.00000000000000E+00   0.00000000000000E+00  -1.92819837995558E-13
     -1.25561945541749E-11  -1.27490143921704E-11  -1.21255304006623E-17   2.80000000000000E-02   2.80000000000000E-02
      0.00000000000000E+00   0.00000000000000E+00   0.00000000000000E+00   0.00000000000000E+00   0.00000000000000E+00
     -7.45562870738383E-17   1.50000000000000E-01   1.50000000000000E-01   0.00000000000000E+00   0.00000000000000E+00
      1.27446375937564E-11   4.37679841404491E-15   1.27490143921704E-11   1.26045073007547E-17   3.00000000000000E-01
      3.00000000000000E-01   0.00000000000000E+00   0.00000000000000E+00   0.00000000000000E+00   0.00000000000000E+00
      0.00000000000000E+00   7.40773101737459E-17
      8.00000000000000E-02
      0.00000000000000E+00   0.00000000000000E+00   0.00000000000000E+00   0.00000000000000E+00  -1.94091997556699E-13
     -1.15768919346403E-11  -1.17709839321970E-11  -1.21691592901162E-17   3.20000000000000E-02   3.20000000000000E-02
      0.00000000000000E+00   0.00000000000000E+00   0.00000000000000E+00   0.00000000000000E+00   0.00000000000000E+00
     -7.34198471579785E-17   1.50000000000000E-01   1.50000000000000E-01   0.00000000000000E+00   0.00000000000000E+00
      1.17666340627641E-11   4.34986943286158E-15   1.17709839321970E-11   1.25610445706080E-17   3.00000000000000E-01
      3.00000000000000E-01   0.00000000000000E+00   0.00000000000000E+00   0.00000000000000E+00   0.00000000000000E+00
      0.00000000000000E+00   7.30279618774867E-17
      9.00000000000000E-02
      0.00000000000000E+00   0.00000000000000E+00   0.00000000000000E+00   0.00000000000000E+00  -1.95366352050510E-13
     -1.06800443580636E-11  -1.08754107101141E-11  -1.22127700000694E-17   3.60000000000000E-02   3.60000000000000E-02
      0.00000000000000E+00   0.00000000000000E+00   0.00000000000000E+00   0.00000000000000E+00   0.00000000000000E+00
     -7.22834087241611E-17   1.50000000000000E-01   1.50000000000000E-01   0.00000000000000E+00   0.00000000000000E+00
      1.08710877266365E-11   4.32298347764433E-15   1.08754107101141E-11   1.25175666215155E-17   3.00000000000000E-01
      3.00000000000000E-01   0.00000000000000E+00   0.00000000000000E+00   0.00000000000000E+00   0.00000000000000E+00
      0.00000000000000E+00   7.19786121027150E-17
      1.00000000000000E-01
      0.00000000000000E+00   0.00000000000000E+00   0.00000000000000E+00   0.00000000000000E+00  -1.96642888129661E-13
     -9.85917102349870E-12  -1.00558139116284E-11  -1.22563628873968E-17   4.00000000000000E-02   4.00000000000000E-02
      0.00000000000000E+00   0.00000000000000E+00   0.00000000000000E+00   0.00000000000000E+00   0.00000000000000E+00
     -7.11469714431304E-17   1.50000000000000E-01   1.50000000000000E-01   0.00000000000000E+00   0.00000000000000E+00
      1.00515177716255E-11   4.29614000290365E-15   1.00558139116284E-11   1.24740731520755E-17   3.00000000000000E-01
      3.00000000000000E-01   0.00000000000000E+00   0.00000000000000E+00   0.00000000000000E+00   0.00000000000000E+00
      0.00000000000000E+00   7.09292611784517E-17
      1.10000000000000E-01
      0.00000000000000E+00   0.00000000000000E+00   0.00000000000000E+00   0.00000000000000E+00  -1.97921591638341E-13
     -9.10823196285194E-12  -9.30615355449029E-12  -1.22999383010635E-17   4.40000000000000E-02   4.40000000000000E-02
      0.00000000000000E+00   0.00000000000000E+00   0.00000000000000E+00   0.00000000000000E+00   0.00000000000000E+00
     -7.00105349863148E-17   1.50000000000000E-01   1.50000000000000E-01   0.00000000000000E+00   0.00000000000000E+00
      9.30188421598341E-12   4.26933850687221E-15   9.30615355449028E-12   1.24305638543228E-17   3.00000000000000E-01
      3.00000000000000E-01   0.00000000000000E+00   0.00000000000000E+00   0.00000000000000E+00   0.00000000000000E+00
      0.00000000000000E+00   6.98799094330555E-17
      1.20000000000000E-01
      0.00000000000000E+00   0.00000000000000E+00   0.00000000000000E+00   0.00000000000000E+00  -1.99202447704658E-13
     -8.42160433826075E-12  -8.62080678596541E-12  -1.23434965823140E-17   4.80000000000000E-02   4.80000000000000E-02
      0.00000000000000E+00   0.00000000000000E+00   0.00000000000000E+00   0.00000000000000E+00   0.00000000000000E+00
     -6.88740990256418E-17   1.50000000000000E-01   1.50000000000000E-01   0.00000000000000E+00   0.00000000000000E+00
      8.61656420746220E-12   4.24257850319844E-15   8.62080678596540E-12   1.23870384135493E-17   3.00000000000000E-01
      3.00000000000000E-01   0.00000000000000E+00   0.00000000000000E+00   0.00000000000000E+00   0.00000000000000E+00
      0.00000000000000E+00   6.88305571944065E-17
      1.30000000000000E-01
      0.00000000000000E+00   0.00000000000000E+00   0.00000000000000E+00   0.00000000000000E+00  -2.00485440826838E-13
     -7.79405959451383E-12  -7.99454503534067E-12  -1.23870380648567E-17   5.20000000000000E-02   5.20000000000000E-02
      0.00000000000000E+00   0.00000000000000E+00   0.00000000000000E+00   0.00000000000000E+00   0.00000000000000E+00
     -6.77376632333535E-17   1.50000000000000E-01   1.50000000000000E-01   0.00000000000000E+00   0.00000000000000E+00
      7.99032917580200E-12   4.21585953866047E-15   7.99454503534066E-12   1.23434965081222E-17   3.00000000000000E-01
      3.00000000000000E-01   0.00000000000000E+00   0.00000000000000E+00   0.00000000000000E+00   0.00000000000000E+00
      0.00000000000000E+00   6.77812047900880E-17
      1.40000000000000E-01
      0.00000000000000E+00   0.00000000000000E+00   0.00000000000000E+00   0.00000000000000E+00  -2.01770554950539E-13
     -7.22074145740717E-12  -7.42251201235771E-12  -1.24305630750438E-17   5.60000000000000E-02   5.60000000000000E-02
      0.00000000000000E+00   0.00000000000000E+00   0.00000000000000E+00   0.00000000000000E+00   0.00000000000000E+00
     -6.66012272818237E-17   1.50000000000000E-01   1.50000000000000E-01   0.00000000000000E+00   0.00000000000000E+00
      7.41832283115602E-12   4.18918120169713E-15   7.42251201235771E-12   1.22999378092983E-17   3.00000000000000E-01
      3.00000000000000E-01   0.00000000000000E+00   0.00000000000000E+00   0.00000000000000E+00   0.00000000000000E+00
      0.00000000000000E+00   6.67318525475692E-17
      1.50000000000000E-01
      0.00000000000000E+00   0.00000000000000E+00   0.00000000000000E+00   0.00000000000000E+00  -2.03057773539054E-13
     -6.69714476848521E-12  -6.90020254202426E-12  -1.24740719320468E-17   6.00000000000000E-02   6.00000000000000E-02
      0.00000000000000E+00   0.00000000000000E+00   0.00000000000000E+00   0.00000000000000E+00   0.00000000000000E+00
     -6.54647908433740E-17   1.50000000000000E-01   1.50000000000000E-01   0.00000000000000E+00   0.00000000000000E+00
      6.89603999890082E-12   4.16254312343746E-15   6.90020254202426E-12   1.22563619810341E-17   3.00000000000000E-01
      3.00000000000000E-01   0.00000000000000E+00   0.00000000000000E+00   0.00000000000000E+00   0.00000000000000E+00
      0.00000000000000E+00   6.56825007943867E-17
      1.60000000000000E-01
      0.00000000000000E+00   0.00000000000000E+00   0.00000000000000E+00   0.00000000000000E+00  -2.04347079638189E-13
     -6.21909514607747E-12  -6.42344222571566E-12  -1.25175649480273E-17   6.40000000000000E-02   6.40000000000000E-02
      0.00000000000000E+00   0.00000000000000E+00   0.00000000000000E+00   0.00000000000000E+00   0.00000000000000E+00
     -6.43283535900913E-17   1.50000000000000E-01   1.50000000000000E-01   0.00000000000000E+00   0.00000000000000E+00
      6.41930628073860E-12   4.13594497704691E-15   6.42344222571565E-12   1.22127686797922E-17   3.00000000000000E-01
      3.00000000000000E-01   0.00000000000000E+00   0.00000000000000E+00   0.00000000000000E+00   0.00000000000000E+00
      0.00000000000000E+00   6.46331498583264E-17
      1.70000000000000E-01
      0.00000000000000E+00   0.00000000000000E+00   0.00000000000000E+00   0.00000000000000E+00  -2.05638455933809E-13
     -5.78272946198055E-12  -5.98836791791436E-12  -1.25610424283041E-17   6.80000000000000E-02   6.80000000000000E-02
      0.00000000000000E+00   0.00000000000000E+00   0.00000000000000E+00   0.00000000000000E+00   0.00000000000000E+00
     -6.31919151936445E-17   1.50000000000000E-01   1.50000000000000E-01   0.00000000000000E+00   0.00000000000000E+00
      5.98425853142291E-12   4.10938649145382E-15   5.98836791791436E-12   1.21691575543434E-17   3.00000000000000E-01
      3.00000000000000E-01   0.00000000000000E+00   0.00000000000000E+00   0.00000000000000E+00   0.00000000000000E+00
      0.00000000000000E+00   6.35838000676052E-17
      1.80000000000000E-01
      0.00000000000000E+00   0.00000000000000E+00   0.00000000000000E+00   0.00000000000000E+00  -2.06931884806006E-13
     -5.38447712248955E-12  -5.59140900729556E-12  -1.26045046715157E-17   7.20000000000000E-02   7.20000000000000E-02
      0.00000000000000E+00   0.00000000000000E+00   0.00000000000000E+00   0.00000000000000E+00   0.00000000000000E+00
     -6.20554753251015E-17   1.50000000000000E-01   1.50000000000000E-01   0.00000000000000E+00   0.00000000000000E+00
      5.58732613985245E-12   4.08286744310420E-15   5.59140900729555E-12   1.21255282455644E-17   3.00000000000000E-01
      3.00000000000000E-01   0.00000000000000E+00   0.00000000000000E+00   0.00000000000000E+00   0.00000000000000E+00
      0.00000000000000E+00   6.25344517510528E-17
      1.90000000000000E-01
      0.00000000000000E+00   0.00000000000000E+00   0.00000000000000E+00   0.00000000000000E+00  -2.08227348375817E-13
     -5.02104214196029E-12  -5.22926949033611E-12  -1.26479519697791E-17   7.60000000000000E-02   7.60000000000000E-02
      0.00000000000000E+00   0.00000000000000E+00   0.00000000000000E+00   0.00000000000000E+00   0.00000000000000E+00
     -6.09190336547458E-17   1.50000000000000E-01   1.50000000000000E-01   0.00000000000000E+00   0.00000000000000E+00
      5.22521310266365E-12   4.05638767246310E-15   5.22926949033611E-12   1.20818803862306E-17   3.00000000000000E-01
      3.00000000000000E-01   0.00000000000000E+00   0.00000000000000E+00   0.00000000000000E+00   0.00000000000000E+00
      0.00000000000000E+00   6.14851052382943E-17
      2.00000000000000E-01
      0.00000000000000E+00   0.00000000000000E+00   0.00000000000000E+00   0.00000000000000E+00  -2.09524828550182E-13
     -4.68938599637807E-12  -4.89891082492825E-12  -1.26913846088445E-17   8.00000000000000E-02   8.00000000000000E-02
      0.00000000000000E+00   0.00000000000000E+00   0.00000000000000E+00   0.00000000000000E+00   0.00000000000000E+00
     -5.97825898518930E-17   1.50000000000000E-01   1.50000000000000E-01   0.00000000000000E+00   0.00000000000000E+00
      4.89488087785085E-12   4.02994707739671E-15   4.89891082492825E-12   1.20382136008047E-17   3.00000000000000E-01
      3.00000000000000E-01   0.00000000000000E+00   0.00000000000000E+00   0.00000000000000E+00   0.00000000000000E+00
      0.00000000000000E+00   6.04357608599328E-17
      2.10000000000000E-01
      0.00000000000000E+00   0.00000000000000E+00   0.00000000000000E+00   0.00000000000000E+00  -2.10824307060829E-13
     -4.38671124388154E-12  -4.59753555094237E-12  -1.27348028682461E-17   8.40000000000000E-02   8.40000000000000E-02
      0.00000000000000E+00   0.00000000000000E+00   0.00000000000000E+00   0.00000000000000E+00   0.00000000000000E+00
     -5.86461435847060E-17   1.50000000000000E-01   1.50000000000000E-01   0.00000000000000E+00   0.00000000000000E+00
      4.59353200532133E-12   4.00354562103458E-15   4.59753555094237E-12   1.19945275052195E-17   3.00000000000000E-01
      3.00000000000000E-01   0.00000000000000E+00   0.00000000000000E+00   0.00000000000000E+00   0.00000000000000E+00
      0.00000000000000E+00   5.93864189477326E-17
      2.20000000000000E-01
      0.00000000000000E+00   0.00000000000000E+00   0.00000000000000E+00   0.00000000000000E+00  -2.12125765501624E-13
     -4.11044589852850E-12  -4.32257166403012E-12  -1.27782070214493E-17   8.80000000000000E-02   8.80000000000000E-02
      0.00000000000000E+00   0.00000000000000E+00   0.00000000000000E+00   0.00000000000000E+00   0.00000000000000E+00
     -5.75096945200106E-17   1.50000000000000E-01   1.50000000000000E-01   0.00000000000000E+00   0.00000000000000E+00
      4.31859448069782E-12   3.97718333230079E-15   4.32257166403012E-12   1.19508217066560E-17   3.00000000000000E-01
      3.00000000000000E-01   0.00000000000000E+00   0.00000000000000E+00   0.00000000000000E+00   0.00000000000000E+00
      0.00000000000000E+00   5.83370798348038E-17
      2.30000000000000E-01
      0.00000000000000E+00   0.00000000000000E+00   0.00000000000000E+00   0.00000000000000E+00  -2.13429185357957E-13
     -3.85822854302566E-12  -4.07165772838362E-12  -1.28215973359943E-17   9.20000000000000E-02   9.20000000000000E-02
      0.00000000000000E+00   0.00000000000000E+00   0.00000000000000E+00   0.00000000000000E+00   0.00000000000000E+00
     -5.63732423231089E-17   1.50000000000000E-01   1.50000000000000E-01   0.00000000000000E+00   0.00000000000000E+00
      4.06770686807915E-12   3.95086030446365E-15   4.07165772838362E-12   1.19070958033160E-17   3.00000000000000E-01
      3.00000000000000E-01   0.00000000000000E+00   0.00000000000000E+00   0.00000000000000E+00   0.00000000000000E+00
      0.00000000000000E+00   5.72877438557871E-17
      2.40000000000000E-01
      0.00000000000000E+00   0.00000000000000E+00   0.00000000000000E+00   0.00000000000000E+00  -2.14734548040405E-13
     -3.62789416557727E-12  -3.84262871361768E-12  -1.28649740736356E-17   9.60000000000000E-02   9.60000000000000E-02
      0.00000000000000E+00   0.00000000000000E+00   0.00000000000000E+00   0.00000000000000E+00   0.00000000000000E+00
     -5.52367866575929E-17   1.50000000000000E-01   1.50000000000000E-01   0.00000000000000E+00   0.00000000000000E+00
      3.83870413691625E-12   3.92457670142762E-15   3.84262871361768E-12   1.18633493841888E-17   3.00000000000000E-01
      3.00000000000000E-01   0.00000000000000E+00   0.00000000000000E+00   0.00000000000000E+00   0.00000000000000E+00
      0.00000000000000E+00   5.62384113470397E-17
      2.50000000000000E-01
      0.00000000000000E+00   0.00000000000000E+00   0.00000000000000E+00   0.00000000000000E+00  -2.16041834907227E-13
     -3.41746070543845E-12  -3.63350254034568E-12  -1.29083374904791E-17   1.00000000000000E-01   1.00000000000000E-01
      0.00000000000000E+00   0.00000000000000E+00   0.00000000000000E+00   0.00000000000000E+00   0.00000000000000E+00
     -5.41003271851562E-17   1.50000000000000E-01   1.50000000000000E-01   0.00000000000000E+00   0.00000000000000E+00
      3.62960420758590E-12   3.89833275978331E-15   3.63350254034568E-12   1.18195820288123E-17   3.00000000000000E-01
      3.00000000000000E-01   0.00000000000000E+00   0.00000000000000E+00   0.00000000000000E+00   0.00000000000000E+00
      0.00000000000000E+00   5.51890826468230E-17
      2.60000000000000E-01
      0.00000000000000E+00   0.00000000000000E+00   0.00000000000000E+00   0.00000000000000E+00  -2.17351027292729E-13
     -3.22511629125059E-12  -3.44246731854332E-12  -1.29516878371147E-17   1.04000000000000E-01   1.04000000000000E-01
      0.00000000000000E+00   0.00000000000000E+00   0.00000000000000E+00   0.00000000000000E+00   0.00000000000000E+00
     -5.29638635654044E-17   1.50000000000000E-01   1.50000000000000E-01   0.00000000000000E+00   0.00000000000000E+00
      3.43859518975911E-12   3.87212878421727E-15   3.44246731854332E-12   1.17757933070281E-17   3.00000000000000E-01
      3.00000000000000E-01   0.00000000000000E+00   0.00000000000000E+00   0.00000000000000E+00   0.00000000000000E+00
      0.00000000000000E+00   5.41397580954910E-17
      2.70000000000000E-01
      0.00000000000000E+00   0.00000000000000E+00   0.00000000000000E+00   0.00000000000000E+00  -2.18662106523880E-13
     -3.04920715576746E-12  -3.26786926229134E-12  -1.29950253587462E-17   1.08000000000000E-01   1.08000000000000E-01
      0.00000000000000E+00   0.00000000000000E+00   0.00000000000000E+00   0.00000000000000E+00   0.00000000000000E+00
     -5.18273954556646E-17   1.50000000000000E-01   1.50000000000000E-01   0.00000000000000E+00   0.00000000000000E+00
      3.26402329714310E-12   3.84596514823089E-15   3.26786926229133E-12   1.17319827787300E-17   3.00000000000000E-01
      3.00000000000000E-01   0.00000000000000E+00   0.00000000000000E+00   0.00000000000000E+00   0.00000000000000E+00
      0.00000000000000E+00   5.30904380356807E-17
      2.80000000000000E-01
      0.00000000000000E+00   0.00000000000000E+00   0.00000000000000E+00   0.00000000000000E+00  -2.19975053944923E-13
     -2.88822621012427E-12  -3.10820126406920E-12  -1.30383502953177E-17   1.12000000000000E-01   1.12000000000000E-01
      0.00000000000000E+00   0.00000000000000E+00   0.00000000000000E+00   0.00000000000000E+00   0.00000000000000E+00
     -5.06909225107922E-17   1.50000000000000E-01   1.50000000000000E-01   0.00000000000000E+00   0.00000000000000E+00
      3.10438142176928E-12   3.81984229990517E-15   3.10820126406919E-12   1.16881499936062E-17   3.00000000000000E-01
      3.00000000000000E-01   0.00000000000000E+00   0.00000000000000E+00   0.00000000000000E+00   0.00000000000000E+00
      0.00000000000000E+00   5.20411228125037E-17
      2.90000000000000E-01
      0.00000000000000E+00   0.00000000000000E+00   0.00000000000000E+00   0.00000000000000E+00  -2.21289850930585E-13
     -2.74080226037917E-12  -2.96209211130976E-12  -1.30816628816375E-17   1.16000000000000E-01   1.16000000000000E-01
      0.00000000000000E+00   0.00000000000000E+00   0.00000000000000E+00   0.00000000000000E+00   0.00000000000000E+00
     -4.95544443829772E-17   1.50000000000000E-01   1.50000000000000E-01   0.00000000000000E+00   0.00000000000000E+00
      2.95829835056033E-12   3.79376074942457E-15   2.96209211130976E-12   1.16442944908747E-17   3.00000000000000E-01
      3.00000000000000E-01   0.00000000000000E+00   0.00000000000000E+00   0.00000000000000E+00   0.00000000000000E+00
      0.00000000000000E+00   5.09918127737400E-17
      3.00000000000000E-01
      0.00000000000000E+00   0.00000000000000E+00   0.00000000000000E+00   0.00000000000000E+00  -2.22606478906038E-13
     -2.60568984877187E-12  -2.82829632767791E-12  -1.31249633474977E-17   1.20000000000000E-01   1.20000000000000E-01
      0.00000000000000E+00   0.00000000000000E+00   0.00000000000000E+00   0.00000000000000E+00   0.00000000000000E+00
     -4.84179607215472E-17   1.50000000000000E-01   1.50000000000000E-01   0.00000000000000E+00   0.00000000000000E+00
      2.82452860659490E-12   3.76772108300847E-15   2.82829632767791E-12   1.16004157990117E-17   3.00000000000000E-01
      3.00000000000000E-01   0.00000000000000E+00   0.00000000000000E+00   0.00000000000000E+00   0.00000000000000E+00
      0.00000000000000E+00   4.99425082700332E-17
      3.10000000000000E-01
      0.00000000000000E+00   0.00000000000000E+00   0.00000000000000E+00   0.00000000000000E+00  -2.23924919357482E-13
     -2.48175970174350E-12  -2.70568462110098E-12  -1.31682519177924E-17   1.24000000000000E-01   1.24000000000000E-01
      0.00000000000000E+00   0.00000000000000E+00   0.00000000000000E+00   0.00000000000000E+00   0.00000000000000E+00
     -4.72814711727695E-17   1.50000000000000E-01   1.50000000000000E-01   0.00000000000000E+00   0.00000000000000E+00
      2.70194289715398E-12   3.74172394699496E-15   2.70568462110098E-12   1.15565134354730E-17   3.00000000000000E-01
      3.00000000000000E-01   0.00000000000000E+00   0.00000000000000E+00   0.00000000000000E+00   0.00000000000000E+00
      0.00000000000000E+00   4.88932096550889E-17
      3.20000000000000E-01
      0.00000000000000E+00   0.00000000000000E+00   0.00000000000000E+00   0.00000000000000E+00  -2.25245153846820E-13
     -2.36798976662396E-12  -2.59323492047077E-12  -1.32115288126314E-17   1.28000000000000E-01   1.28000000000000E-01
      0.00000000000000E+00   0.00000000000000E+00   0.00000000000000E+00   0.00000000000000E+00   0.00000000000000E+00
     -4.61449753796498E-17   1.50000000000000E-01   1.50000000000000E-01   0.00000000000000E+00   0.00000000000000E+00
      2.58951915041787E-12   3.71577005290579E-15   2.59323492047077E-12   1.15125869064074E-17   3.00000000000000E-01
      3.00000000000000E-01   0.00000000000000E+00   0.00000000000000E+00   0.00000000000000E+00   0.00000000000000E+00
      0.00000000000000E+00   4.78439172858738E-17
      3.30000000000000E-01
      0.00000000000000E+00   0.00000000000000E+00   0.00000000000000E+00   0.00000000000000E+00  -2.26567164021209E-13
     -2.26345681862556E-12  -2.49002398264677E-12  -1.32547942474523E-17   1.32000000000000E-01   1.32000000000000E-01
      0.00000000000000E+00   0.00000000000000E+00   0.00000000000000E+00   0.00000000000000E+00   0.00000000000000E+00
     -4.50084729817293E-17   1.50000000000000E-01   1.50000000000000E-01   0.00000000000000E+00   0.00000000000000E+00
      2.48633412247355E-12   3.68986017321864E-15   2.49002398264677E-12   1.14686357063627E-17   3.00000000000000E-01
      3.00000000000000E-01   0.00000000000000E+00   0.00000000000000E+00   0.00000000000000E+00   0.00000000000000E+00
      0.00000000000000E+00   4.67946315228189E-17
      3.40000000000000E-01
      0.00000000000000E+00   0.00000000000000E+00   0.00000000000000E+00   0.00000000000000E+00  -2.27890931625658E-13
     -2.16732861970112E-12  -2.39521955132678E-12  -1.32980484331291E-17   1.36000000000000E-01   1.36000000000000E-01
      0.00000000000000E+00   0.00000000000000E+00   0.00000000000000E+00   0.00000000000000E+00   0.00000000000000E+00
     -4.38719636148788E-17   1.50000000000000E-01   1.50000000000000E-01   0.00000000000000E+00   0.00000000000000E+00
      2.39155555618628E-12   3.66399514049786E-15   2.39521955132678E-12   1.14246593179839E-17   3.00000000000000E-01
      3.00000000000000E-01   0.00000000000000E+00   0.00000000000000E+00   0.00000000000000E+00   0.00000000000000E+00
      0.00000000000000E+00   4.57453527300240E-17
      3.50000000000000E-01
      0.00000000000000E+00   0.00000000000000E+00   0.00000000000000E+00   0.00000000000000E+00  -2.29216438507139E-13
     -2.07885661073836E-12  -2.30807304924550E-12  -1.33412915760787E-17   1.40000000000000E-01   1.40000000000000E-01
      0.00000000000000E+00   0.00000000000000E+00   0.00000000000000E+00   0.00000000000000E+00   0.00000000000000E+00
     -4.27354469110896E-17   1.50000000000000E-01   1.50000000000000E-01   0.00000000000000E+00   0.00000000000000E+00
      2.30443487340849E-12   3.63817583701137E-15   2.30807304924550E-12   1.13806572117026E-17   3.00000000000000E-01
      3.00000000000000E-01   0.00000000000000E+00   0.00000000000000E+00   0.00000000000000E+00   0.00000000000000E+00
      0.00000000000000E+00   4.46960812754657E-17
      3.60000000000000E-01
      0.00000000000000E+00   0.00000000000000E+00   0.00000000000000E+00   0.00000000000000E+00  -2.30543666631903E-13
     -1.99736911860917E-12  -2.22791278524108E-12  -1.33845238783638E-17   1.44000000000000E-01   1.44000000000000E-01
      0.00000000000000E+00   0.00000000000000E+00   0.00000000000000E+00   0.00000000000000E+00   0.00000000000000E+00
     -4.15989224982621E-17   1.50000000000000E-01   1.50000000000000E-01   0.00000000000000E+00   0.00000000000000E+00
      2.22430038203915E-12   3.61240320192793E-15   2.22791278524107E-12   1.13366288454179E-17   3.00000000000000E-01
      3.00000000000000E-01   0.00000000000000E+00   0.00000000000000E+00   0.00000000000000E+00   0.00000000000000E+00
      0.00000000000000E+00   4.36468175312080E-17
      3.70000000000000E-01
      0.00000000000000E+00   0.00000000000000E+00   0.00000000000000E+00   0.00000000000000E+00  -2.31872598081670E-13