DF-ISE text

Info {
  version   = 1.0
  type      = xyplot
  datasets  = [
    "time"
    "source OuterVoltage" "source InnerVoltage" "source QuasiFermiPotential" "source DisplacementCurrent" "source eCurrent"
    "source hCurrent" "source TotalCurrent" "source Charge" "topGate OuterVoltage" "topGate InnerVoltage"
    "topGate QuasiFermiPotential" "topGate DisplacementCurrent" "topGate eCurrent" "topGate hCurrent" "topGate TotalCurrent"
    "topGate Charge" "drain OuterVoltage" "drain InnerVoltage" "drain QuasiFermiPotential" "drain DisplacementCurrent"
    "drain eCurrent" "drain hCurrent" "drain TotalCurrent" "drain Charge" "bottomGate OuterVoltage"
    "bottomGate InnerVoltage" "bottomGate QuasiFermiPotential" "bottomGate DisplacementCurrent" "bottomGate eCurrent" "bottomGate hCurrent"
    "bottomGate TotalCurrent" "bottomGate Charge" ]
  functions = [
    Time
    OuterVoltage InnerVoltage QuasiFermiPotential DisplacementCurrent eCurrent
    hCurrent TotalCurrent Charge OuterVoltage InnerVoltage
    QuasiFermiPotential DisplacementCurrent eCurrent hCurrent TotalCurrent
    Charge OuterVoltage InnerVoltage QuasiFermiPotential DisplacementCurrent
    eCurrent hCurrent TotalCurrent Charge OuterVoltage
    InnerVoltage QuasiFermiPotential DisplacementCurrent eCurrent hCurrent
    TotalCurrent Charge ]
}

Data {
      1.00000000000000E-02
      0.00000000000000E+00   0.00000000000000E+00   0.00000000000000E+00   0.00000000000000E+00  -1.37807818875176E-13
     -1.07105135943042E-10  -1.07242943761917E-10  -1.00906808992791E-17   4.00000000000000E-03   4.00000000000000E-03
      0.00000000000000E+00   0.00000000000000E+00   0.00000000000000E+00   0.00000000000000E+00   0.00000000000000E+00
     -4.11214771240350E-17   3.10000000000000E-01   3.10000000000000E-01   0.00000000000000E+00   0.00000000000000E+00
      1.07235614246765E-10   7.32951515169550E-15   1.07242943761917E-10   1.80168319745320E-17   1.40000000000000E-01
      1.40000000000000E-01   0.00000000000000E+00   0.00000000000000E+00   0.00000000000000E+00   0.00000000000000E+00
      0.00000000000000E+00   3.31953260487820E-17
      2.00000000000000E-02
      0.00000000000000E+00   0.00000000000000E+00   0.00000000000000E+00   0.00000000000000E+00  -1.38943327464476E-13
     -1.00295222867548E-10  -1.00434166195012E-10  -1.01357206123633E-17   8.00000000000000E-03   8.00000000000000E-03
      0.00000000000000E+00   0.00000000000000E+00   0.00000000000000E+00   0.00000000000000E+00   0.00000000000000E+00
     -3.99847091518501E-17   3.10000000000000E-01   3.10000000000000E-01   0.00000000000000E+00   0.00000000000000E+00
      1.00426808129077E-10   7.35806593518079E-15   1.00434166195012E-10   1.79741244051070E-17   1.40000000000000E-01
      1.40000000000000E-01   0.00000000000000E+00   0.00000000000000E+00   0.00000000000000E+00   0.00000000000000E+00
      0.00000000000000E+00   3.21463053591064E-17
      3.00000000000000E-02
      0.00000000000000E+00   0.00000000000000E+00   0.00000000000000E+00   0.00000000000000E+00  -1.40082588212698E-13
     -9.39012298441522E-11  -9.40413124323649E-11  -1.01807126502972E-17   1.20000000000000E-02   1.20000000000000E-02
      0.00000000000000E+00   0.00000000000000E+00   0.00000000000000E+00   0.00000000000000E+00   0.00000000000000E+00
     -3.88479643510171E-17   3.10000000000000E-01   3.10000000000000E-01   0.00000000000000E+00   0.00000000000000E+00
      9.40339302174483E-11   7.38221491657273E-15   9.40413124323648E-11   1.79314154598126E-17   1.40000000000000E-01
      1.40000000000000E-01   0.00000000000000E+00   0.00000000000000E+00   0.00000000000000E+00   0.00000000000000E+00
      0.00000000000000E+00   3.10972615415016E-17
      4.00000000000000E-02
      0.00000000000000E+00   0.00000000000000E+00   0.00000000000000E+00   0.00000000000000E+00  -1.41225567028107E-13
     -8.79006422655464E-11  -8.80418678325745E-11  -1.02256580477181E-17   1.60000000000000E-02   1.60000000000000E-02
      0.00000000000000E+00   0.00000000000000E+00   0.00000000000000E+00   0.00000000000000E+00   0.00000000000000E+00
     -3.77112421672787E-17   3.10000000000000E-01   3.10000000000000E-01   0.00000000000000E+00   0.00000000000000E+00
      8.80344655543154E-11   7.40227825914347E-15   8.80418678325746E-11   1.78887050685866E-17   1.40000000000000E-01
      1.40000000000000E-01   0.00000000000000E+00   0.00000000000000E+00   0.00000000000000E+00   0.00000000000000E+00
      0.00000000000000E+00   3.00481951464101E-17
      5.00000000000000E-02
      0.00000000000000E+00   0.00000000000000E+00   0.00000000000000E+00   0.00000000000000E+00  -1.42372229759171E-13
     -8.22719682927161E-11  -8.24143405224753E-11  -1.02705578151256E-17   2.00000000000000E-02   2.00000000000000E-02
      0.00000000000000E+00   0.00000000000000E+00   0.00000000000000E+00   0.00000000000000E+00   0.00000000000000E+00
     -3.65745420600342E-17   3.10000000000000E-01   3.10000000000000E-01   0.00000000000000E+00   0.00000000000000E+00
      8.24069219716807E-11   7.41855079472517E-15   8.24143405224754E-11   1.78459931642138E-17   1.40000000000000E-01
      1.40000000000000E-01   0.00000000000000E+00   0.00000000000000E+00   0.00000000000000E+00   0.00000000000000E+00
      0.00000000000000E+00   2.89991067109460E-17
      6.00000000000000E-02
      0.00000000000000E+00   0.00000000000000E+00   0.00000000000000E+00   0.00000000000000E+00  -1.43522542223176E-13
     -7.69947043083254E-11  -7.71382268505486E-11  -1.03154129394522E-17   2.40000000000000E-02   2.40000000000000E-02
      0.00000000000000E+00   0.00000000000000E+00   0.00000000000000E+00   0.00000000000000E+00   0.00000000000000E+00
     -3.54378635019097E-17   3.10000000000000E-01   3.10000000000000E-01   0.00000000000000E+00   0.00000000000000E+00
      7.71307955430976E-11   7.43130745103706E-15   7.71382268505486E-11   1.78032796820656E-17   1.40000000000000E-01
      1.40000000000000E-01   0.00000000000000E+00   0.00000000000000E+00   0.00000000000000E+00   0.00000000000000E+00
      0.00000000000000E+00   2.79499967592963E-17
      7.00000000000000E-02
      0.00000000000000E+00   0.00000000000000E+00   0.00000000000000E+00   0.00000000000000E+00  -1.44676470232375E-13
     -7.20493009789228E-11  -7.21939774491552E-11  -1.03602243846200E-17   2.80000000000000E-02   2.80000000000000E-02
      0.00000000000000E+00   0.00000000000000E+00   0.00000000000000E+00   0.00000000000000E+00   0.00000000000000E+00
     -3.43012059783462E-17   3.10000000000000E-01   3.10000000000000E-01   0.00000000000000E+00   0.00000000000000E+00
      7.21865366447163E-11   7.44080443888451E-15   7.21939774491552E-11   1.77605645598576E-17   1.40000000000000E-01
      1.40000000000000E-01   0.00000000000000E+00   0.00000000000000E+00   0.00000000000000E+00   0.00000000000000E+00
      0.00000000000000E+00   2.69008658031086E-17
      8.00000000000000E-02
      0.00000000000000E+00   0.00000000000000E+00   0.00000000000000E+00   0.00000000000000E+00  -1.45833979617864E-13
     -6.74171299357868E-11  -6.75629639154046E-11  -1.04049930920867E-17   3.20000000000000E-02   3.20000000000000E-02
      0.00000000000000E+00   0.00000000000000E+00   0.00000000000000E+00   0.00000000000000E+00   0.00000000000000E+00
     -3.31645689872029E-17   3.10000000000000E-01   3.10000000000000E-01   0.00000000000000E+00   0.00000000000000E+00
      6.75555166347519E-11   7.44728065279435E-15   6.75629639154047E-11   1.77178477374269E-17   1.40000000000000E-01
      1.40000000000000E-01   0.00000000000000E+00   0.00000000000000E+00   0.00000000000000E+00   0.00000000000000E+00
      0.00000000000000E+00   2.58517143418627E-17
      9.00000000000000E-02
      0.00000000000000E+00   0.00000000000000E+00   0.00000000000000E+00   0.00000000000000E+00  -1.46995036251413E-13
     -6.30804510823808E-11  -6.32274461186322E-11  -1.04497199813784E-17   3.60000000000000E-02   3.60000000000000E-02
      0.00000000000000E+00   0.00000000000000E+00   0.00000000000000E+00   0.00000000000000E+00   0.00000000000000E+00
     -3.20279520383765E-17   3.10000000000000E-01   3.10000000000000E-01   0.00000000000000E+00   0.00000000000000E+00
      6.32199951602812E-11   7.45095835093559E-15   6.32274461186322E-11   1.76751291565237E-17   1.40000000000000E-01
      1.40000000000000E-01   0.00000000000000E+00   0.00000000000000E+00   0.00000000000000E+00   0.00000000000000E+00
      0.00000000000000E+00   2.48025428632311E-17
      1.00000000000000E-01
      0.00000000000000E+00   0.00000000000000E+00   0.00000000000000E+00   0.00000000000000E+00  -1.48159606065432E-13
     -5.90223805380946E-11  -5.91705401441600E-11  -1.04944059506108E-17   4.00000000000000E-02   4.00000000000000E-02
      0.00000000000000E+00   0.00000000000000E+00   0.00000000000000E+00   0.00000000000000E+00   0.00000000000000E+00
     -3.08913546534350E-17   3.10000000000000E-01   3.10000000000000E-01   0.00000000000000E+00   0.00000000000000E+00
      5.91630880998056E-11   7.45204435439704E-15   5.91705401441600E-11   1.76324087606204E-17   1.40000000000000E-01
      1.40000000000000E-01   0.00000000000000E+00   0.00000000000000E+00   0.00000000000000E+00   0.00000000000000E+00
      0.00000000000000E+00   2.37533518434254E-17
      1.10000000000000E-01
      0.00000000000000E+00   0.00000000000000E+00   0.00000000000000E+00   0.00000000000000E+00  -1.49327655071233E-13
     -5.52268592259812E-11  -5.53761868810524E-11  -1.05390518769988E-17   4.40000000000000E-02   4.40000000000000E-02
      0.00000000000000E+00   0.00000000000000E+00   0.00000000000000E+00   0.00000000000000E+00   0.00000000000000E+00
     -2.97547763652651E-17   3.10000000000000E-01   3.10000000000000E-01   0.00000000000000E+00   0.00000000000000E+00
      5.53687361495005E-11   7.45073155196698E-15   5.53761868810524E-11   1.75896864947332E-17   1.40000000000000E-01
      1.40000000000000E-01   0.00000000000000E+00   0.00000000000000E+00   0.00000000000000E+00   0.00000000000000E+00
      0.00000000000000E+00   2.27041417475307E-17
      1.20000000000000E-01
      0.00000000000000E+00   0.00000000000000E+00   0.00000000000000E+00   0.00000000000000E+00  -1.50499149375745E-13
     -5.16786221099755E-11  -5.18291212593512E-11  -1.05836586173545E-17   4.80000000000000E-02   4.80000000000000E-02
      0.00000000000000E+00   0.00000000000000E+00   0.00000000000000E+00   0.00000000000000E+00   0.00000000000000E+00
     -2.86182167177320E-17   3.10000000000000E-01   3.10000000000000E-01   0.00000000000000E+00   0.00000000000000E+00
      5.18216740605605E-11   7.44719879066926E-15   5.18291212593512E-11   1.75469623052569E-17   1.40000000000000E-01
      1.40000000000000E-01   0.00000000000000E+00   0.00000000000000E+00   0.00000000000000E+00   0.00000000000000E+00
      0.00000000000000E+00   2.16549130298295E-17
      1.30000000000000E-01
      0.00000000000000E+00   0.00000000000000E+00   0.00000000000000E+00   0.00000000000000E+00  -1.51674055196822E-13
     -4.83631680918198E-11  -4.85148421470166E-11  -1.06282270085737E-17   5.20000000000000E-02   5.20000000000000E-02
      0.00000000000000E+00   0.00000000000000E+00   0.00000000000000E+00   0.00000000000000E+00   0.00000000000000E+00
     -2.74816752653522E-17   3.10000000000000E-01   3.10000000000000E-01   0.00000000000000E+00   0.00000000000000E+00
      4.85074005344983E-11   7.44161251825294E-15   4.85148421470166E-11   1.75042361398119E-17   1.40000000000000E-01
      1.40000000000000E-01   0.00000000000000E+00   0.00000000000000E+00   0.00000000000000E+00   0.00000000000000E+00
      0.00000000000000E+00   2.06056661341140E-17
      1.40000000000000E-01
      0.00000000000000E+00   0.00000000000000E+00   0.00000000000000E+00   0.00000000000000E+00  -1.52852338877251E-13
     -4.52667305714266E-11  -4.54195829103039E-11  -1.06727578681117E-17   5.60000000000000E-02   5.60000000000000E-02
      0.00000000000000E+00   0.00000000000000E+00   0.00000000000000E+00   0.00000000000000E+00   0.00000000000000E+00
     -2.63451515729779E-17   3.10000000000000E-01   3.10000000000000E-01   0.00000000000000E+00   0.00000000000000E+00
      4.54121487826915E-11   7.43412761233444E-15   4.54195829103039E-11   1.74615079471019E-17   1.40000000000000E-01
      1.40000000000000E-01   0.00000000000000E+00   0.00000000000000E+00   0.00000000000000E+00   0.00000000000000E+00
      0.00000000000000E+00   1.95564014939877E-17
      1.50000000000000E-01
      0.00000000000000E+00   0.00000000000000E+00   0.00000000000000E+00   0.00000000000000E+00  -1.54033966897587E-13
     -4.23762486766225E-11  -4.25302826435200E-11  -1.07172519944482E-17   6.00000000000000E-02   6.00000000000000E-02
      0.00000000000000E+00   0.00000000000000E+00   0.00000000000000E+00   0.00000000000000E+00   0.00000000000000E+00
     -2.52086452154918E-17   3.10000000000000E-01   3.10000000000000E-01   0.00000000000000E+00   0.00000000000000E+00
      4.25228577558959E-11   7.42488762418761E-15   4.25302826435201E-11   1.74187776767815E-17   1.40000000000000E-01
      1.40000000000000E-01   0.00000000000000E+00   0.00000000000000E+00   0.00000000000000E+00   0.00000000000000E+00
      0.00000000000000E+00   1.85071195331584E-17
      1.60000000000000E-01
      0.00000000000000E+00   0.00000000000000E+00   0.00000000000000E+00   0.00000000000000E+00  -1.55218905887914E-13
     -3.96793391689613E-11  -3.98345580748492E-11  -1.07617101675410E-17   6.40000000000000E-02   6.40000000000000E-02
      0.00000000000000E+00   0.00000000000000E+00   0.00000000000000E+00   0.00000000000000E+00   0.00000000000000E+00
     -2.40721557775128E-17   3.10000000000000E-01   3.10000000000000E-01   0.00000000000000E+00   0.00000000000000E+00
      3.98271440488523E-11   7.41402599688913E-15   3.98345580748492E-11   1.73760452793331E-17   1.40000000000000E-01
      1.40000000000000E-01   0.00000000000000E+00   0.00000000000000E+00   0.00000000000000E+00   0.00000000000000E+00
      0.00000000000000E+00   1.74578206657207E-17
      1.70000000000000E-01
      0.00000000000000E+00   0.00000000000000E+00   0.00000000000000E+00   0.00000000000000E+00  -1.56407122638605E-13
     -3.71642690284789E-11  -3.73206761511175E-11  -1.08061331492698E-17   6.80000000000000E-02   6.80000000000000E-02
      0.00000000000000E+00   0.00000000000000E+00   0.00000000000000E+00   0.00000000000000E+00   0.00000000000000E+00
     -2.29356828531118E-17   3.10000000000000E-01   3.10000000000000E-01   0.00000000000000E+00   0.00000000000000E+00
      3.73132744845075E-11   7.40166661008024E-15   3.73206761511175E-11   1.73333107059520E-17   1.40000000000000E-01
      1.40000000000000E-01   0.00000000000000E+00   0.00000000000000E+00   0.00000000000000E+00   0.00000000000000E+00
      0.00000000000000E+00   1.64085052964296E-17
      1.80000000000000E-01
      0.00000000000000E+00   0.00000000000000E+00   0.00000000000000E+00   0.00000000000000E+00  -1.57598584110186E-13
     -3.48199287219691E-11  -3.49775273060792E-11  -1.08505216838695E-17   7.20000000000000E-02   7.20000000000000E-02
      0.00000000000000E+00   0.00000000000000E+00   0.00000000000000E+00   0.00000000000000E+00   0.00000000000000E+00
     -2.17992260455368E-17   3.10000000000000E-01   3.10000000000000E-01   0.00000000000000E+00   0.00000000000000E+00
      3.49701393817608E-11   7.38792431847996E-15   3.49775273060792E-11   1.72905739084402E-17   1.40000000000000E-01
      1.40000000000000E-01   0.00000000000000E+00   0.00000000000000E+00   0.00000000000000E+00   0.00000000000000E+00
      0.00000000000000E+00   1.53591738209662E-17
      1.90000000000000E-01
      0.00000000000000E+00   0.00000000000000E+00   0.00000000000000E+00   0.00000000000000E+00  -1.58793257442361E-13
     -3.26358061582150E-11  -3.27945994156574E-11  -1.08948764983535E-17   7.60000000000000E-02   7.60000000000000E-02
      0.00000000000000E+00   0.00000000000000E+00   0.00000000000000E+00   0.00000000000000E+00   0.00000000000000E+00
     -2.06627849669467E-17   3.10000000000000E-01   3.10000000000000E-01   0.00000000000000E+00   0.00000000000000E+00
      3.27872265100319E-11   7.37290562546285E-15   3.27945994156573E-11   1.72478348391060E-17   1.40000000000000E-01
      1.40000000000000E-01   0.00000000000000E+00   0.00000000000000E+00   0.00000000000000E+00   0.00000000000000E+00
      0.00000000000000E+00   1.43098266261943E-17
      2.00000000000000E-01
      0.00000000000000E+00   0.00000000000000E+00   0.00000000000000E+00   0.00000000000000E+00  -1.59991109962277E-13
     -3.06019613326601E-11  -3.07619524426224E-11  -1.09391983029271E-17   8.00000000000000E-02   8.00000000000000E-02
      0.00000000000000E+00   0.00000000000000E+00   0.00000000000000E+00   0.00000000000000E+00   0.00000000000000E+00
     -1.95263592381543E-17   3.10000000000000E-01   3.10000000000000E-01   0.00000000000000E+00   0.00000000000000E+00
      3.07545957333236E-11   7.35670929878023E-15   3.07619524426224E-11   1.72050934506712E-17   1.40000000000000E-01
      1.40000000000000E-01   0.00000000000000E+00   0.00000000000000E+00   0.00000000000000E+00   0.00000000000000E+00
      0.00000000000000E+00   1.32604640904101E-17
      2.10000000000000E-01
      0.00000000000000E+00   0.00000000000000E+00   0.00000000000000E+00   0.00000000000000E+00  -1.61192109192083E-13
     -2.87090016635151E-11  -2.88701937727072E-11  -1.09834877913910E-17   8.40000000000000E-02   8.40000000000000E-02
      0.00000000000000E+00   0.00000000000000E+00   0.00000000000000E+00   0.00000000000000E+00   0.00000000000000E+00
     -1.83899484883769E-17   3.10000000000000E-01   3.10000000000000E-01   0.00000000000000E+00   0.00000000000000E+00
      2.88628543458357E-11   7.33942687152161E-15   2.88701937727072E-11   1.71623496961841E-17   1.40000000000000E-01
      1.40000000000000E-01   0.00000000000000E+00   0.00000000000000E+00   0.00000000000000E+00   0.00000000000000E+00
      0.00000000000000E+00   1.22110865835838E-17
      2.20000000000000E-01
      0.00000000000000E+00   0.00000000000000E+00   0.00000000000000E+00   0.00000000000000E+00  -1.62396222855834E-13
     -2.69480580207373E-11  -2.71104542435931E-11  -1.10277456415360E-17   8.80000000000000E-02   8.80000000000000E-02
      0.00000000000000E+00   0.00000000000000E+00   0.00000000000000E+00   0.00000000000000E+00   0.00000000000000E+00
     -1.72535523549953E-17   3.10000000000000E-01   3.10000000000000E-01   0.00000000000000E+00   0.00000000000000E+00
      2.71031331005694E-11   7.32114302380292E-15   2.71104542435932E-11   1.71196035289376E-17   1.40000000000000E-01
      1.40000000000000E-01   0.00000000000000E+00   0.00000000000000E+00   0.00000000000000E+00   0.00000000000000E+00
      0.00000000000000E+00   1.11616944675938E-17
      2.30000000000000E-01
      0.00000000000000E+00   0.00000000000000E+00   0.00000000000000E+00   0.00000000000000E+00  -1.63603418885808E-13
     -2.53107614491206E-11  -2.54743648680064E-11  -1.10719725155275E-17   9.20000000000000E-02   9.20000000000000E-02
      0.00000000000000E+00   0.00000000000000E+00   0.00000000000000E+00   0.00000000000000E+00   0.00000000000000E+00
     -1.61171704833200E-17   3.10000000000000E-01   3.10000000000000E-01   0.00000000000000E+00   0.00000000000000E+00
      2.54670629317505E-11   7.30193625595949E-15   2.54743648680064E-11   1.70768549023928E-17   1.40000000000000E-01
      1.40000000000000E-01   0.00000000000000E+00   0.00000000000000E+00   0.00000000000000E+00   0.00000000000000E+00
      0.00000000000000E+00   1.01122880964547E-17
      2.40000000000000E-01
      0.00000000000000E+00   0.00000000000000E+00   0.00000000000000E+00   0.00000000000000E+00  -1.64813665428261E-13
     -2.37892205851371E-11  -2.39540342505653E-11  -1.11161690602818E-17   9.60000000000000E-02   9.60000000000000E-02
      0.00000000000000E+00   0.00000000000000E+00   0.00000000000000E+00   0.00000000000000E+00   0.00000000000000E+00
     -1.49808025263640E-17   3.10000000000000E-01   3.10000000000000E-01   0.00000000000000E+00   0.00000000000000E+00
      2.39467523713013E-11   7.28187926396847E-15   2.39540342505653E-11   1.70341037701075E-17   1.40000000000000E-01
      1.40000000000000E-01   0.00000000000000E+00   0.00000000000000E+00   0.00000000000000E+00   0.00000000000000E+00
      0.00000000000000E+00   9.06286781653830E-18
      2.50000000000000E-01
      0.00000000000000E+00   0.00000000000000E+00   0.00000000000000E+00   0.00000000000000E+00  -1.66026930848679E-13
     -2.23759997673360E-11  -2.25420266981846E-11  -1.11603359078328E-17   1.00000000000000E-01   1.00000000000000E-01
      0.00000000000000E+00   0.00000000000000E+00   0.00000000000000E+00   0.00000000000000E+00   0.00000000000000E+00
     -1.38444481446234E-17   3.10000000000000E-01   3.10000000000000E-01   0.00000000000000E+00   0.00000000000000E+00
      2.25347656590001E-11   7.26103918454892E-15   2.25420266981847E-11   1.69913500856681E-17   1.40000000000000E-01
      1.40000000000000E-01   0.00000000000000E+00   0.00000000000000E+00   0.00000000000000E+00   0.00000000000000E+00
      0.00000000000000E+00   8.01343396678811E-18
      2.60000000000000E-01
      0.00000000000000E+00   0.00000000000000E+00   0.00000000000000E+00   0.00000000000000E+00  -1.67243183736554E-13
     -2.10640978398324E-11  -2.12313410235689E-11  -1.12044736756903E-17   1.04000000000000E-01   1.04000000000000E-01
      0.00000000000000E+00   0.00000000000000E+00   0.00000000000000E+00   0.00000000000000E+00   0.00000000000000E+00
     -1.27081070058641E-17   3.10000000000000E-01   3.10000000000000E-01   0.00000000000000E+00   0.00000000000000E+00
      2.12241015453930E-11   7.23947817594418E-15   2.12313410235689E-11   1.69485938026263E-17   1.40000000000000E-01
      1.40000000000000E-01   0.00000000000000E+00   0.00000000000000E+00   0.00000000000000E+00   0.00000000000000E+00
      0.00000000000000E+00   6.96398687892808E-18
      2.70000000000000E-01
      0.00000000000000E+00   0.00000000000000E+00   0.00000000000000E+00   0.00000000000000E+00  -1.68462392909727E-13
     -1.98469276468406E-11  -2.00153900397504E-11  -1.12485829671899E-17   1.08000000000000E-01   1.08000000000000E-01
      0.00000000000000E+00   0.00000000000000E+00   0.00000000000000E+00   0.00000000000000E+00   0.00000000000000E+00
     -1.15717787849144E-17   3.10000000000000E-01   3.10000000000000E-01   0.00000000000000E+00   0.00000000000000E+00
      2.00081727859705E-11   7.21725377988360E-15   2.00153900397504E-11   1.69058348744390E-17   1.40000000000000E-01
      1.40000000000000E-01   0.00000000000000E+00   0.00000000000000E+00   0.00000000000000E+00   0.00000000000000E+00
      0.00000000000000E+00   5.91452687766528E-18
      2.80000000000000E-01
      0.00000000000000E+00   0.00000000000000E+00   0.00000000000000E+00   0.00000000000000E+00  -1.69684527418327E-13
     -1.87182962162141E-11  -1.88879807436324E-11  -1.12926643718344E-17   1.12000000000000E-01   1.12000000000000E-01
      0.00000000000000E+00   0.00000000000000E+00   0.00000000000000E+00   0.00000000000000E+00   0.00000000000000E+00
     -1.04354631634640E-17   3.10000000000000E-01   3.10000000000000E-01   0.00000000000000E+00   0.00000000000000E+00
      1.88807863245824E-11   7.19441905001594E-15   1.88879807436324E-11   1.68630732544113E-17   1.40000000000000E-01
      1.40000000000000E-01   0.00000000000000E+00   0.00000000000000E+00   0.00000000000000E+00   0.00000000000000E+00
      0.00000000000000E+00   4.86505428088708E-18
      2.90000000000000E-01
      0.00000000000000E+00   0.00000000000000E+00   0.00000000000000E+00   0.00000000000000E+00  -1.70909556548335E-13
     -1.76723856300929E-11  -1.78432951866413E-11  -1.13367184656269E-17   1.16000000000000E-01   1.16000000000000E-01
      0.00000000000000E+00   0.00000000000000E+00   0.00000000000000E+00   0.00000000000000E+00   0.00000000000000E+00
     -9.29915982986884E-18   3.10000000000000E-01   3.10000000000000E-01   0.00000000000000E+00   0.00000000000000E+00
      1.78361241635559E-11   7.17102308535315E-15   1.78432951866413E-11   1.68203088956430E-17   1.40000000000000E-01
      1.40000000000000E-01   0.00000000000000E+00   0.00000000000000E+00   0.00000000000000E+00   0.00000000000000E+00
      0.00000000000000E+00   3.81556939985281E-18
      3.00000000000000E-01
      0.00000000000000E+00   0.00000000000000E+00   0.00000000000000E+00   0.00000000000000E+00  -1.72137449824803E-13
     -1.67037345789285E-11  -1.68758720287533E-11  -1.13807458113963E-17   1.20000000000000E-01   1.20000000000000E-01
      0.00000000000000E+00   0.00000000000000E+00   0.00000000000000E+00   0.00000000000000E+00   0.00000000000000E+00
     -8.16286847896107E-18   3.10000000000000E-01   3.10000000000000E-01   0.00000000000000E+00   0.00000000000000E+00
      1.68687249174951E-11   7.14711125826491E-15   1.68758720287533E-11   1.67775417509770E-17   1.40000000000000E-01
      1.40000000000000E-01   0.00000000000000E+00   0.00000000000000E+00   0.00000000000000E+00   0.00000000000000E+00
      0.00000000000000E+00   2.76607253938034E-18
      3.10000000000000E-01
      0.00000000000000E+00   0.00000000000000E+00   0.00000000000000E+00   0.00000000000000E+00  -1.73368177014755E-13
     -1.58072205956483E-11  -1.59805887726630E-11  -1.14247469591143E-17   1.24000000000000E-01   1.24000000000000E-01
      0.00000000000000E+00   0.00000000000000E+00   0.00000000000000E+00   0.00000000000000E+00   0.00000000000000E+00
     -7.02658881186463E-18   3.10000000000000E-01   3.10000000000000E-01   0.00000000000000E+00   0.00000000000000E+00
      1.59734660472841E-11   7.12272537893058E-15   1.59805887726630E-11   1.67347717729515E-17   1.40000000000000E-01
      1.40000000000000E-01   0.00000000000000E+00   0.00000000000000E+00   0.00000000000000E+00   0.00000000000000E+00
      0.00000000000000E+00   1.71656399802749E-18
      3.20000000000000E-01
      0.00000000000000E+00   0.00000000000000E+00   0.00000000000000E+00   0.00000000000000E+00  -1.74601708129790E-13
     -1.49780429664056E-11  -1.51526446745354E-11  -1.14687224462058E-17   1.28000000000000E-01   1.28000000000000E-01
      0.00000000000000E+00   0.00000000000000E+00   0.00000000000000E+00   0.00000000000000E+00   0.00000000000000E+00
     -5.89032053581574E-18   3.10000000000000E-01   3.10000000000000E-01   0.00000000000000E+00   0.00000000000000E+00
      1.51455467703907E-11   7.09790414476324E-15   1.51526446745355E-11   1.66919989137528E-17   1.40000000000000E-01
      1.40000000000000E-01   0.00000000000000E+00   0.00000000000000E+00   0.00000000000000E+00   0.00000000000000E+00
      0.00000000000000E+00   6.67044068268753E-19
      3.30000000000000E-01
      0.00000000000000E+00   0.00000000000000E+00   0.00000000000000E+00   0.00000000000000E+00  -1.75838013428408E-13
     -1.42117063129695E-11  -1.43875443263979E-11  -1.15126727978506E-17   1.32000000000000E-01   1.32000000000000E-01
      0.00000000000000E+00   0.00000000000000E+00   0.00000000000000E+00   0.00000000000000E+00   0.00000000000000E+00
     -4.75406336398834E-18   3.10000000000000E-01   3.10000000000000E-01   0.00000000000000E+00   0.00000000000000E+00
      1.43804716431716E-11   7.07268322631931E-15   1.43875443263979E-11   1.66492231251717E-17   1.40000000000000E-01
      1.40000000000000E-01   0.00000000000000E+00   0.00000000000000E+00   0.00000000000000E+00   0.00000000000000E+00
      0.00000000000000E+00  -3.82486963332669E-19
      3.40000000000000E-01
      0.00000000000000E+00   0.00000000000000E+00   0.00000000000000E+00   0.00000000000000E+00  -1.77077063418084E-13
     -1.35040048426351E-11  -1.36810819060532E-11  -1.15565985272791E-17   1.36000000000000E-01   1.36000000000000E-01
      0.00000000000000E+00   0.00000000000000E+00   0.00000000000000E+00   0.00000000000000E+00   0.00000000000000E+00
     -3.61781701532427E-18   3.10000000000000E-01   3.10000000000000E-01   0.00000000000000E+00   0.00000000000000E+00
      1.36740348105269E-11   7.04709552632565E-15   1.36810819060532E-11   1.66064443585607E-17   1.40000000000000E-01
      1.40000000000000E-01   0.00000000000000E+00   0.00000000000000E+00   0.00000000000000E+00   0.00000000000000E+00
      0.00000000000000E+00  -1.43202881595732E-18
      3.50000000000000E-01
      0.00000000000000E+00   0.00000000000000E+00   0.00000000000000E+00   0.00000000000000E+00  -1.78318828857104E-13
     -1.28510072604722E-11  -1.30293260893293E-11  -1.16005001360594E-17   1.40000000000000E-01   1.40000000000000E-01
      0.00000000000000E+00   0.00000000000000E+00   0.00000000000000E+00   0.00000000000000E+00   0.00000000000000E+00
     -2.48158121436780E-18   3.10000000000000E-01   3.10000000000000E-01   0.00000000000000E+00   0.00000000000000E+00
      1.30223049179241E-11   7.02117140526208E-15   1.30293260893293E-11   1.65636625647935E-17   1.40000000000000E-01
      1.40000000000000E-01   0.00000000000000E+00   0.00000000000000E+00   0.00000000000000E+00   0.00000000000000E+00
      0.00000000000000E+00  -2.48158121436629E-18
      3.60000000000000E-01
      0.00000000000000E+00   0.00000000000000E+00   0.00000000000000E+00   0.00000000000000E+00  -1.79563280756187E-13
     -1.22490423386525E-11  -1.24286056194087E-11  -1.16443781143791E-17   1.44000000000000E-01   1.44000000000000E-01
      0.00000000000000E+00   0.00000000000000E+00   0.00000000000000E+00   0.00000000000000E+00   0.00000000000000E+00
     -1.34535569110474E-18   3.10000000000000E-01   3.10000000000000E-01   0.00000000000000E+00   0.00000000000000E+00
      1.24216106805319E-11   6.99493887678544E-15   1.24286056194087E-11   1.65208776942259E-17   1.40000000000000E-01
      1.40000000000000E-01   0.00000000000000E+00   0.00000000000000E+00   0.00000000000000E+00   0.00000000000000E+00
      0.00000000000000E+00  -3.53114388874209E-18
      3.70000000000000E-01
      0.00000000000000E+00   0.00000000000000E+00   0.00000000000000E+00   0.00000000000000E+00  -1.80810390379895E-13