DF-ISE text

Info {
  version   = 1.0
  type      = xyplot
  datasets  = [
    "time"
    "source OuterVoltage" "source InnerVoltage" "source QuasiFermiPotential" "source DisplacementCurrent" "source eCurrent"
    "source hCurrent" "source TotalCurrent" "source Charge" "topGate OuterVoltage" "topGate InnerVoltage"
    "topGate QuasiFermiPotential" "topGate DisplacementCurrent" "topGate eCurrent" "topGate hCurrent" "topGate TotalCurrent"
    "topGate Charge" "drain OuterVoltage" "drain InnerVoltage" "drain QuasiFermiPotential" "drain DisplacementCurrent"
    "drain eCurrent" "drain hCurrent" "drain TotalCurrent" "drain Charge" "bottomGate OuterVoltage"
    "bottomGate InnerVoltage" "bottomGate QuasiFermiPotential" "bottomGate DisplacementCurrent" "bottomGate eCurrent" "bottomGate hCurrent"
    "bottomGate TotalCurrent" "bottomGate Charge" ]
  functions = [
    Time
    OuterVoltage InnerVoltage QuasiFermiPotential DisplacementCurrent eCurrent
    hCurrent TotalCurrent Charge OuterVoltage InnerVoltage
    QuasiFermiPotential DisplacementCurrent eCurrent hCurrent TotalCurrent
    Charge OuterVoltage InnerVoltage QuasiFermiPotential DisplacementCurrent
    eCurrent hCurrent TotalCurrent Charge OuterVoltage
    InnerVoltage QuasiFermiPotential DisplacementCurrent eCurrent hCurrent
    TotalCurrent Charge ]
}

Data {
      1.00000000000000E-02
      0.00000000000000E+00   0.00000000000000E+00   0.00000000000000E+00   0.00000000000000E+00  -1.68976983682146E-13
     -6.28855027687579E-11  -6.30544797524400E-11  -1.28432326598498E-17   4.00000000000000E-03   4.00000000000000E-03
      0.00000000000000E+00   0.00000000000000E+00   0.00000000000000E+00   0.00000000000000E+00   0.00000000000000E+00
     -1.03758168561148E-16   4.00000000000000E-02   4.00000000000000E-02   0.00000000000000E+00   0.00000000000000E+00
      6.30530257397637E-11   1.45401267630164E-15   6.30544797524400E-11   9.43096068721458E-18   3.90000000000000E-01
      3.90000000000000E-01   0.00000000000000E+00   0.00000000000000E+00   0.00000000000000E+00   0.00000000000000E+00
      0.00000000000000E+00   1.07170440533783E-16
      2.00000000000000E-02
      0.00000000000000E+00   0.00000000000000E+00   0.00000000000000E+00   0.00000000000000E+00  -1.70012580696704E-13
     -6.06239623521610E-11  -6.07939749328577E-11  -1.28866025941989E-17   8.00000000000000E-03   8.00000000000000E-03
      0.00000000000000E+00   0.00000000000000E+00   0.00000000000000E+00   0.00000000000000E+00   0.00000000000000E+00
     -1.02620610321166E-16   4.00000000000000E-02   4.00000000000000E-02   0.00000000000000E+00   0.00000000000000E+00
      6.07925091752927E-11   1.46575756496080E-15   6.07939749328577E-11   9.38499947158922E-18   3.90000000000000E-01
      3.90000000000000E-01   0.00000000000000E+00   0.00000000000000E+00   0.00000000000000E+00   0.00000000000000E+00
      0.00000000000000E+00   1.06122213443775E-16
      3.00000000000000E-02
      0.00000000000000E+00   0.00000000000000E+00   0.00000000000000E+00   0.00000000000000E+00  -1.71049347134920E-13
     -5.84721512226354E-11  -5.86432005697703E-11  -1.29299593258362E-17   1.20000000000000E-02   1.20000000000000E-02
      0.00000000000000E+00   0.00000000000000E+00   0.00000000000000E+00   0.00000000000000E+00   0.00000000000000E+00
     -1.01483023355973E-16   4.00000000000000E-02   4.00000000000000E-02   0.00000000000000E+00   0.00000000000000E+00
      5.86417235288855E-11   1.47704088479790E-15   5.86432005697703E-11   9.33896743539994E-18   3.90000000000000E-01
      3.90000000000000E-01   0.00000000000000E+00   0.00000000000000E+00   0.00000000000000E+00   0.00000000000000E+00
      0.00000000000000E+00   1.05074015246410E-16
      4.00000000000000E-02
      0.00000000000000E+00   0.00000000000000E+00   0.00000000000000E+00   0.00000000000000E+00  -1.72087296023369E-13
     -5.64231998281762E-11  -5.65952871241996E-11  -1.29733031022150E-17   1.60000000000000E-02   1.60000000000000E-02
      0.00000000000000E+00   0.00000000000000E+00   0.00000000000000E+00   0.00000000000000E+00   0.00000000000000E+00
     -1.00345406693461E-16   4.00000000000000E-02   4.00000000000000E-02   0.00000000000000E+00   0.00000000000000E+00
      5.65937993192481E-11   1.48780495143475E-15   5.65952871241995E-11   9.29286287274390E-18   3.90000000000000E-01
      3.90000000000000E-01   0.00000000000000E+00   0.00000000000000E+00   0.00000000000000E+00   0.00000000000000E+00
      0.00000000000000E+00   1.04025846922932E-16
      5.00000000000000E-02
      0.00000000000000E+00   0.00000000000000E+00   0.00000000000000E+00   0.00000000000000E+00  -1.73126438375239E-13
     -5.44707146755890E-11  -5.46438411139642E-11  -1.30166341654318E-17   2.00000000000000E-02   2.00000000000000E-02
      0.00000000000000E+00   0.00000000000000E+00   0.00000000000000E+00   0.00000000000000E+00   0.00000000000000E+00
     -9.92077593408687E-17   4.00000000000000E-02   4.00000000000000E-02   0.00000000000000E+00   0.00000000000000E+00
      5.46423431186149E-11   1.49799534934361E-15   5.46438411139643E-11   9.24668403056574E-18   3.90000000000000E-01
      3.90000000000000E-01   0.00000000000000E+00   0.00000000000000E+00   0.00000000000000E+00   0.00000000000000E+00
      0.00000000000000E+00   1.02977709475735E-16
      6.00000000000000E-02
      0.00000000000000E+00   0.00000000000000E+00   0.00000000000000E+00   0.00000000000000E+00  -1.74166782850297E-13
     -5.26087474169401E-11  -5.27829141997903E-11  -1.30599527523493E-17   2.40000000000000E-02   2.40000000000000E-02
      0.00000000000000E+00   0.00000000000000E+00   0.00000000000000E+00   0.00000000000000E+00   0.00000000000000E+00
     -9.80700802839463E-17   4.00000000000000E-02   4.00000000000000E-02   0.00000000000000E+00   0.00000000000000E+00
      5.27814066385713E-11   1.50756121907064E-15   5.27829141997904E-11   9.20042910707228E-18   3.90000000000000E-01
      3.90000000000000E-01   0.00000000000000E+00   0.00000000000000E+00   0.00000000000000E+00   0.00000000000000E+00
      0.00000000000000E+00   1.01929603929223E-16
      7.00000000000000E-02
      0.00000000000000E+00   0.00000000000000E+00   0.00000000000000E+00   0.00000000000000E+00  -1.75208336379593E-13
     -5.08317657674970E-11  -5.10069741038766E-11  -1.31032590947151E-17   2.80000000000000E-02   2.80000000000000E-02
      0.00000000000000E+00   0.00000000000000E+00   0.00000000000000E+00   0.00000000000000E+00   0.00000000000000E+00
     -9.69323684860749E-17   4.00000000000000E-02   4.00000000000000E-02   0.00000000000000E+00   0.00000000000000E+00
      5.10054576483634E-11   1.51645551321774E-15   5.10069741038766E-11   9.15409625007793E-18   3.90000000000000E-01
      3.90000000000000E-01   0.00000000000000E+00   0.00000000000000E+00   0.00000000000000E+00   0.00000000000000E+00
      0.00000000000000E+00   1.00881531330712E-16
      8.00000000000000E-02
      0.00000000000000E+00   0.00000000000000E+00   0.00000000000000E+00   0.00000000000000E+00  -1.76251104279546E-13
     -4.91346261405323E-11  -4.93108772448118E-11  -1.31465534192790E-17   3.20000000000000E-02   3.20000000000000E-02
      0.00000000000000E+00   0.00000000000000E+00   0.00000000000000E+00   0.00000000000000E+00   0.00000000000000E+00
     -9.57946228873577E-17   4.00000000000000E-02   4.00000000000000E-02   0.00000000000000E+00   0.00000000000000E+00
      4.93093526095788E-11   1.52463523292192E-15   4.93108772448118E-11   9.10768355527712E-18   3.90000000000000E-01
      3.90000000000000E-01   0.00000000000000E+00   0.00000000000000E+00   0.00000000000000E+00   0.00000000000000E+00
      0.00000000000000E+00   9.98334927513596E-17
      9.00000000000000E-02
      0.00000000000000E+00   0.00000000000000E+00   0.00000000000000E+00   0.00000000000000E+00  -1.77295090024614E-13
     -4.75125478936570E-11  -4.76898429836816E-11  -1.31898359479051E-17   3.60000000000000E-02   3.60000000000000E-02
      0.00000000000000E+00   0.00000000000000E+00   0.00000000000000E+00   0.00000000000000E+00   0.00000000000000E+00
     -9.46568424036726E-17   4.00000000000000E-02   4.00000000000000E-02   0.00000000000000E+00   0.00000000000000E+00
      4.76883109220426E-11   1.53206163905330E-15   4.76898429836817E-11   9.06118906443844E-18   3.90000000000000E-01
      3.90000000000000E-01   0.00000000000000E+00   0.00000000000000E+00   0.00000000000000E+00   0.00000000000000E+00
      0.00000000000000E+00   9.87854892871392E-17
      1.00000000000000E-01
      0.00000000000000E+00   0.00000000000000E+00   0.00000000000000E+00   0.00000000000000E+00  -1.78340295857475E-13
     -4.59610890899620E-11  -4.61394293858195E-11  -1.32331068976819E-17   4.00000000000000E-02   4.00000000000000E-02
      0.00000000000000E+00   0.00000000000000E+00   0.00000000000000E+00   0.00000000000000E+00   0.00000000000000E+00
     -9.35190259256853E-17   4.00000000000000E-02   4.00000000000000E-02   0.00000000000000E+00   0.00000000000000E+00
      4.61378906853958E-11   1.53870042361832E-15   4.61394293858194E-11   9.01461076351670E-18   3.90000000000000E-01
      3.90000000000000E-01   0.00000000000000E+00   0.00000000000000E+00   0.00000000000000E+00   0.00000000000000E+00
      0.00000000000000E+00   9.77375220598505E-17
      1.10000000000000E-01
      0.00000000000000E+00   0.00000000000000E+00   0.00000000000000E+00   0.00000000000000E+00  -1.79386722731109E-13
     -4.44761236851573E-11  -4.46555104078884E-11  -1.32763664810299E-17   4.40000000000000E-02   4.40000000000000E-02
      0.00000000000000E+00   0.00000000000000E+00   0.00000000000000E+00   0.00000000000000E+00   0.00000000000000E+00
     -9.23811723178206E-17   4.00000000000000E-02   4.00000000000000E-02   0.00000000000000E+00   0.00000000000000E+00
      4.46539658860314E-11   1.54452185697224E-15   4.46555104078884E-11   8.96794658067722E-18   3.90000000000000E-01
      3.90000000000000E-01   0.00000000000000E+00   0.00000000000000E+00   0.00000000000000E+00   0.00000000000000E+00
      0.00000000000000E+00   9.66895922181732E-17
      1.20000000000000E-01
      0.00000000000000E+00   0.00000000000000E+00   0.00000000000000E+00   0.00000000000000E+00  -1.80434370469272E-13
     -4.30538200591086E-11  -4.32342544295779E-11  -1.33196149058046E-17   4.80000000000000E-02   4.80000000000000E-02
      0.00000000000000E+00   0.00000000000000E+00   0.00000000000000E+00   0.00000000000000E+00   0.00000000000000E+00
     -9.12432804171891E-17   4.00000000000000E-02   4.00000000000000E-02   0.00000000000000E+00   0.00000000000000E+00
      4.32327049286854E-11   1.54950089246369E-15   4.32342544295779E-11   8.92119438422712E-18   3.90000000000000E-01
      3.90000000000000E-01   0.00000000000000E+00   0.00000000000000E+00   0.00000000000000E+00   0.00000000000000E+00
      0.00000000000000E+00   9.56417009387666E-17
      1.30000000000000E-01
      0.00000000000000E+00   0.00000000000000E+00   0.00000000000000E+00   0.00000000000000E+00  -1.81483237704604E-13
     -4.16906208167514E-11  -4.18721040544560E-11  -1.33628523753980E-17   5.20000000000000E-02   5.20000000000000E-02
      0.00000000000000E+00   0.00000000000000E+00   0.00000000000000E+00   0.00000000000000E+00   0.00000000000000E+00
     -9.01053490324664E-17   4.00000000000000E-02   4.00000000000000E-02   0.00000000000000E+00   0.00000000000000E+00
      4.18705504372107E-11   1.55361724527836E-15   4.18721040544560E-11   8.87435198044788E-18   3.90000000000000E-01
      3.90000000000000E-01   0.00000000000000E+00   0.00000000000000E+00   0.00000000000000E+00   0.00000000000000E+00
      0.00000000000000E+00   9.45938494274164E-17
      1.40000000000000E-01
      0.00000000000000E+00   0.00000000000000E+00   0.00000000000000E+00   0.00000000000000E+00  -1.82533322105276E-13
     -4.03832237892813E-11  -4.05657571113866E-11  -1.34060790888364E-17   5.60000000000000E-02   5.60000000000000E-02
      0.00000000000000E+00   0.00000000000000E+00   0.00000000000000E+00   0.00000000000000E+00   0.00000000000000E+00
     -8.89673769427207E-17   4.00000000000000E-02   4.00000000000000E-02   0.00000000000000E+00   0.00000000000000E+00
      4.05642002559677E-11   1.55685541892247E-15   4.05657571113866E-11   8.82741711132270E-18   3.90000000000000E-01
      3.90000000000000E-01   0.00000000000000E+00   0.00000000000000E+00   0.00000000000000E+00   0.00000000000000E+00
      0.00000000000000E+00   9.35460389202343E-17
      1.50000000000000E-01
      0.00000000000000E+00   0.00000000000000E+00   0.00000000000000E+00   0.00000000000000E+00  -1.83584620550702E-13
     -3.91285641719065E-11  -3.93121487924572E-11  -1.34492952408758E-17   6.00000000000000E-02   6.00000000000000E-02
      0.00000000000000E+00   0.00000000000000E+00   0.00000000000000E+00   0.00000000000000E+00   0.00000000000000E+00
     -8.78293628961870E-17   4.00000000000000E-02   4.00000000000000E-02   0.00000000000000E+00   0.00000000000000E+00
      3.93105895877438E-11   1.55920471339297E-15   3.93121487924572E-11   8.78038745215226E-18   3.90000000000000E-01
      3.90000000000000E-01   0.00000000000000E+00   0.00000000000000E+00   0.00000000000000E+00   0.00000000000000E+00
      0.00000000000000E+00   9.24982706849105E-17
      1.60000000000000E-01
      0.00000000000000E+00   0.00000000000000E+00   0.00000000000000E+00   0.00000000000000E+00  -1.84637129121750E-13
     -3.79237977391741E-11  -3.81084348682959E-11  -1.34925010220943E-17   6.40000000000000E-02   6.40000000000000E-02
      0.00000000000000E+00   0.00000000000000E+00   0.00000000000000E+00   0.00000000000000E+00   0.00000000000000E+00
     -8.66913056089829E-17   4.00000000000000E-02   4.00000000000000E-02   0.00000000000000E+00   0.00000000000000E+00
      3.81068742091214E-11   1.56065917446573E-15   3.81084348682958E-11   8.73326060905148E-18   3.90000000000000E-01
      3.90000000000000E-01   0.00000000000000E+00   0.00000000000000E+00   0.00000000000000E+00   0.00000000000000E+00
      0.00000000000000E+00   9.14505460220257E-17
      1.70000000000000E-01
      0.00000000000000E+00   0.00000000000000E+00   0.00000000000000E+00   0.00000000000000E+00  -1.85690842935775E-13
     -3.67662850832266E-11  -3.69519759261624E-11  -1.35356966189813E-17   6.80000000000000E-02   6.80000000000000E-02
      0.00000000000000E+00   0.00000000000000E+00   0.00000000000000E+00   0.00000000000000E+00   0.00000000000000E+00
     -8.55532037637627E-17   4.00000000000000E-02   4.00000000000000E-02   0.00000000000000E+00   0.00000000000000E+00
      3.69504147086380E-11   1.56121752440563E-15   3.69519759261624E-11   8.68603411631965E-18   3.90000000000000E-01
      3.90000000000000E-01   0.00000000000000E+00   0.00000000000000E+00   0.00000000000000E+00   0.00000000000000E+00
      0.00000000000000E+00   9.04028662664243E-17
      1.80000000000000E-01
      0.00000000000000E+00   0.00000000000000E+00   0.00000000000000E+00   0.00000000000000E+00  -1.86745756867620E-13
     -3.56535768240572E-11  -3.58403225809248E-11  -1.35788822140249E-17   7.20000000000000E-02   7.20000000000000E-02
      0.00000000000000E+00   0.00000000000000E+00   0.00000000000000E+00   0.00000000000000E+00   0.00000000000000E+00
     -8.44150560083051E-17   4.00000000000000E-02   4.00000000000000E-02   0.00000000000000E+00   0.00000000000000E+00
      3.58387616978838E-11   1.56088304096248E-15   3.58403225809248E-11   8.63870543367569E-18   3.90000000000000E-01
      3.90000000000000E-01   0.00000000000000E+00   0.00000000000000E+00   0.00000000000000E+00   0.00000000000000E+00
      0.00000000000000E+00   8.93552327886543E-17
      1.90000000000000E-01
      0.00000000000000E+00   0.00000000000000E+00   0.00000000000000E+00   0.00000000000000E+00  -1.87801865066090E-13
     -3.45833997442304E-11  -3.47712016092965E-11  -1.36220579857956E-17   7.60000000000000E-02   7.60000000000000E-02
      0.00000000000000E+00   0.00000000000000E+00   0.00000000000000E+00   0.00000000000000E+00   0.00000000000000E+00
     -8.32768609540311E-17   4.00000000000000E-02   4.00000000000000E-02   0.00000000000000E+00   0.00000000000000E+00
      3.47696419458858E-11   1.55966341068068E-15   3.47712016092964E-11   8.59127194334967E-18   3.90000000000000E-01
      3.90000000000000E-01   0.00000000000000E+00   0.00000000000000E+00   0.00000000000000E+00   0.00000000000000E+00
      0.00000000000000E+00   8.83076469964770E-17
      2.00000000000000E-01
      0.00000000000000E+00   0.00000000000000E+00   0.00000000000000E+00   0.00000000000000E+00  -1.88859160781953E-13
     -3.35536438034436E-11  -3.37425029642256E-11  -1.36652241090279E-17   8.00000000000000E-02   8.00000000000000E-02
      0.00000000000000E+00   0.00000000000000E+00   0.00000000000000E+00   0.00000000000000E+00   0.00000000000000E+00
     -8.21386171744451E-17   4.00000000000000E-02   4.00000000000000E-02   0.00000000000000E+00   0.00000000000000E+00
      3.37409453936892E-11   1.55757053633941E-15   3.37425029642255E-11   8.54373094702092E-18   3.90000000000000E-01
      3.90000000000000E-01   0.00000000000000E+00   0.00000000000000E+00   0.00000000000000E+00   0.00000000000000E+00
      0.00000000000000E+00   8.72601103364521E-17
      2.10000000000000E-01
      0.00000000000000E+00   0.00000000000000E+00   0.00000000000000E+00   0.00000000000000E+00  -1.89917637450194E-13
     -3.25623499909213E-11  -3.27522676283715E-11  -1.37083807546989E-17   8.40000000000000E-02   8.40000000000000E-02
      0.00000000000000E+00   0.00000000000000E+00   0.00000000000000E+00   0.00000000000000E+00   0.00000000000000E+00
     -8.10003232034969E-17   4.00000000000000E-02   4.00000000000000E-02   0.00000000000000E+00   0.00000000000000E+00
      3.27507130080442E-11   1.55462032737778E-15   3.27522676283716E-11   8.49607966259273E-18   3.90000000000000E-01
      3.90000000000000E-01   0.00000000000000E+00   0.00000000000000E+00   0.00000000000000E+00   0.00000000000000E+00
      0.00000000000000E+00   8.62126242956031E-17
      2.20000000000000E-01
      0.00000000000000E+00   0.00000000000000E+00   0.00000000000000E+00   0.00000000000000E+00  -1.90977287453572E-13
     -3.16076989758584E-11  -3.17986762633120E-11  -1.37515280901046E-17   8.80000000000000E-02   8.80000000000000E-02
      0.00000000000000E+00   0.00000000000000E+00   0.00000000000000E+00   0.00000000000000E+00   0.00000000000000E+00
     -7.98619775338557E-17   4.00000000000000E-02   4.00000000000000E-02   0.00000000000000E+00   0.00000000000000E+00
      3.17971254308644E-11   1.55083244750768E-15   3.17986762633119E-11   8.44831522079246E-18   3.90000000000000E-01
      3.90000000000000E-01   0.00000000000000E+00   0.00000000000000E+00   0.00000000000000E+00   0.00000000000000E+00
      0.00000000000000E+00   8.51651904031679E-17
      2.30000000000000E-01
      0.00000000000000E+00   0.00000000000000E+00   0.00000000000000E+00   0.00000000000000E+00  -1.92038103304878E-13
     -3.06880005181396E-11  -3.08800386214445E-11  -1.37946662789331E-17   9.20000000000000E-02   9.20000000000000E-02
      0.00000000000000E+00   0.00000000000000E+00   0.00000000000000E+00   0.00000000000000E+00   0.00000000000000E+00
     -7.87235786150929E-17   4.00000000000000E-02   4.00000000000000E-02   0.00000000000000E+00   0.00000000000000E+00
      3.08784923914052E-11   1.54623003923481E-15   3.08800386214445E-11   8.40043466158519E-18   3.90000000000000E-01
      3.90000000000000E-01   0.00000000000000E+00   0.00000000000000E+00   0.00000000000000E+00   0.00000000000000E+00
      0.00000000000000E+00   8.41178102324408E-17
      2.40000000000000E-01
      0.00000000000000E+00   0.00000000000000E+00   0.00000000000000E+00   0.00000000000000E+00  -1.93100076458655E-13
     -2.98016836032925E-11  -2.99947836797511E-11  -1.38377954813354E-17   9.60000000000000E-02   9.60000000000000E-02
      0.00000000000000E+00   0.00000000000000E+00   0.00000000000000E+00   0.00000000000000E+00   0.00000000000000E+00
     -7.75851248517653E-17   4.00000000000000E-02   4.00000000000000E-02   0.00000000000000E+00   0.00000000000000E+00
      2.99932428403237E-11   1.54083942738731E-15   2.99947836797511E-11   8.35243493038836E-18   3.90000000000000E-01
      3.90000000000000E-01   0.00000000000000E+00   0.00000000000000E+00   0.00000000000000E+00   0.00000000000000E+00
      0.00000000000000E+00   8.30704854027123E-17
      2.50000000000000E-01
      0.00000000000000E+00   0.00000000000000E+00   0.00000000000000E+00   0.00000000000000E+00  -1.94163199054936E-13
     -2.89472872671478E-11  -2.91414504662027E-11  -1.38809158539933E-17   1.00000000000000E-01   1.00000000000000E-01
      0.00000000000000E+00   0.00000000000000E+00   0.00000000000000E+00   0.00000000000000E+00   0.00000000000000E+00
     -7.64466146013926E-17   4.00000000000000E-02   4.00000000000000E-02   0.00000000000000E+00   0.00000000000000E+00
      2.91399157764033E-11   1.53468979944724E-15   2.91414504662027E-11   8.30431287407363E-18   3.90000000000000E-01
      3.90000000000000E-01   0.00000000000000E+00   0.00000000000000E+00   0.00000000000000E+00   0.00000000000000E+00
      0.00000000000000E+00   8.20232175813123E-17
      2.60000000000000E-01
      0.00000000000000E+00   0.00000000000000E+00   0.00000000000000E+00   0.00000000000000E+00  -1.95227462335718E-13
     -2.81234520770422E-11  -2.83186795393780E-11  -1.39240275501853E-17   1.04000000000000E-01   1.04000000000000E-01
      0.00000000000000E+00   0.00000000000000E+00   0.00000000000000E+00   0.00000000000000E+00   0.00000000000000E+00
     -7.53080461723214E-17   4.00000000000000E-02   4.00000000000000E-02   0.00000000000000E+00   0.00000000000000E+00
      2.83171517265099E-11   1.52781286801411E-15   2.83186795393779E-11   8.25606523674114E-18   3.90000000000000E-01
      3.90000000000000E-01   0.00000000000000E+00   0.00000000000000E+00   0.00000000000000E+00   0.00000000000000E+00
      0.00000000000000E+00   8.09760084857655E-17
      2.70000000000000E-01
      0.00000000000000E+00   0.00000000000000E+00   0.00000000000000E+00   0.00000000000000E+00  -1.96292857213967E-13
     -2.73289122376108E-11  -2.75252050948247E-11  -1.39671307198487E-17   1.08000000000000E-01   1.08000000000000E-01
      0.00000000000000E+00   0.00000000000000E+00   0.00000000000000E+00   0.00000000000000E+00   0.00000000000000E+00
     -7.41694178214673E-17   4.00000000000000E-02   4.00000000000000E-02   0.00000000000000E+00   0.00000000000000E+00
      2.75236848523006E-11   1.52024252416484E-15   2.75252050948248E-11   8.20768865525071E-18   3.90000000000000E-01
      3.90000000000000E-01   0.00000000000000E+00   0.00000000000000E+00   0.00000000000000E+00   0.00000000000000E+00
      0.00000000000000E+00   7.99288598860653E-17
      2.80000000000000E-01
      0.00000000000000E+00   0.00000000000000E+00   0.00000000000000E+00   0.00000000000000E+00  -1.97359374799732E-13
     -2.65624882902910E-11  -2.67598476650907E-11  -1.40102255096405E-17   1.12000000000000E-01   1.12000000000000E-01
      0.00000000000000E+00   0.00000000000000E+00   0.00000000000000E+00   0.00000000000000E+00   0.00000000000000E+00
     -7.30307277519266E-17   4.00000000000000E-02   4.00000000000000E-02   0.00000000000000E+00   0.00000000000000E+00
      2.67583356506100E-11   1.51201448068567E-15   2.67598476650907E-11   8.15917965449247E-18   3.90000000000000E-01
      3.90000000000000E-01   0.00000000000000E+00   0.00000000000000E+00   0.00000000000000E+00   0.00000000000000E+00
      0.00000000000000E+00   7.88817736070747E-17
      2.90000000000000E-01
      0.00000000000000E+00   0.00000000000000E+00   0.00000000000000E+00   0.00000000000000E+00  -1.98427005505272E-13
     -2.58230803766761E-11  -2.60215073821814E-11  -1.40533120629939E-17   1.16000000000000E-01   1.16000000000000E-01
      0.00000000000000E+00   0.00000000000000E+00   0.00000000000000E+00   0.00000000000000E+00   0.00000000000000E+00
     -7.18919741104488E-17   4.00000000000000E-02   4.00000000000000E-02   0.00000000000000E+00   0.00000000000000E+00
      2.60200042162711E-11   1.50316591020406E-15   2.60215073821814E-11   8.11053464237899E-18   3.90000000000000E-01
      3.90000000000000E-01   0.00000000000000E+00   0.00000000000000E+00   0.00000000000000E+00   0.00000000000000E+00
      0.00000000000000E+00   7.78347515310637E-17
      3.00000000000000E-01
      0.00000000000000E+00   0.00000000000000E+00   0.00000000000000E+00   0.00000000000000E+00  -1.99495740449569E-13
     -2.51096620367825E-11  -2.53091577772320E-11  -1.40963905201735E-17   1.20000000000000E-01   1.20000000000000E-01
      0.00000000000000E+00   0.00000000000000E+00   0.00000000000000E+00   0.00000000000000E+00   0.00000000000000E+00
     -7.07531549847578E-17   4.00000000000000E-02   4.00000000000000E-02   0.00000000000000E+00   0.00000000000000E+00
      2.53076640421464E-11   1.49373508562547E-15   2.53091577772320E-11   8.06174990453915E-18   3.90000000000000E-01
      3.90000000000000E-01   0.00000000000000E+00   0.00000000000000E+00   0.00000000000000E+00   0.00000000000000E+00
      0.00000000000000E+00   7.67877956003921E-17
      3.10000000000000E-01
      0.00000000000000E+00   0.00000000000000E+00   0.00000000000000E+00   0.00000000000000E+00  -2.00565569151234E-13
     -2.44212745141809E-11  -2.46218400833321E-11  -1.41394610183269E-17   1.24000000000000E-01   1.24000000000000E-01
      0.00000000000000E+00   0.00000000000000E+00   0.00000000000000E+00   0.00000000000000E+00   0.00000000000000E+00
     -6.96142684007135E-17   4.00000000000000E-02   4.00000000000000E-02   0.00000000000000E+00   0.00000000000000E+00
      2.46203563223101E-11   1.48376102205065E-15   2.46218400833321E-11   8.01282159869225E-18   3.90000000000000E-01
      3.90000000000000E-01   0.00000000000000E+00   0.00000000000000E+00   0.00000000000000E+00   0.00000000000000E+00
      0.00000000000000E+00   7.57409078203481E-17
      3.20000000000000E-01
      0.00000000000000E+00   0.00000000000000E+00   0.00000000000000E+00   0.00000000000000E+00  -2.01636482830663E-13
     -2.37570215408078E-11  -2.39586580236385E-11  -1.41825236915337E-17   1.28000000000000E-01   1.28000000000000E-01
      0.00000000000000E+00   0.00000000000000E+00   0.00000000000000E+00   0.00000000000000E+00   0.00000000000000E+00
     -6.84753123192998E-17   4.00000000000000E-02   4.00000000000000E-02   0.00000000000000E+00   0.00000000000000E+00
      2.39571847405079E-11   1.47328313057171E-15   2.39586580236385E-11   7.96374574868007E-18   3.90000000000000E-01
      3.90000000000000E-01   0.00000000000000E+00   0.00000000000000E+00   0.00000000000000E+00   0.00000000000000E+00
      0.00000000000000E+00   7.46940902621534E-17
      3.30000000000000E-01
      0.00000000000000E+00   0.00000000000000E+00   0.00000000000000E+00   0.00000000000000E+00  -2.02708471239053E-13
     -2.31160645751102E-11  -2.33187730463492E-11  -1.42255786708518E-17   1.32000000000000E-01   1.32000000000000E-01
      0.00000000000000E+00   0.00000000000000E+00   0.00000000000000E+00   0.00000000000000E+00   0.00000000000000E+00
     -6.73362846334272E-17   4.00000000000000E-02   4.00000000000000E-02   0.00000000000000E+00   0.00000000000000E+00
      2.33173107054658E-11   1.46234088344144E-15   2.33187730463492E-11   7.91451823813164E-18   3.90000000000000E-01
      3.90000000000000E-01   0.00000000000000E+00   0.00000000000000E+00   0.00000000000000E+00   0.00000000000000E+00
      0.00000000000000E+00   7.36473450661474E-17
      3.40000000000000E-01
      0.00000000000000E+00   0.00000000000000E+00   0.00000000000000E+00   0.00000000000000E+00  -2.03781524688931E-13
     -2.24976184680251E-11  -2.27013999927140E-11  -1.42686260843603E-17   1.36000000000000E-01   1.36000000000000E-01
      0.00000000000000E+00   0.00000000000000E+00   0.00000000000000E+00   0.00000000000000E+00   0.00000000000000E+00
     -6.61971831645367E-17   4.00000000000000E-02   4.00000000000000E-02   0.00000000000000E+00   0.00000000000000E+00
      2.26999490192216E-11   1.45097349241538E-15   2.27013999927140E-11   7.86513480373497E-18   3.90000000000000E-01
      3.90000000000000E-01   0.00000000000000E+00   0.00000000000000E+00   0.00000000000000E+00   0.00000000000000E+00
      0.00000000000000E+00   7.26006744451620E-17
      3.50000000000000E-01
      0.00000000000000E+00   0.00000000000000E+00   0.00000000000000E+00   0.00000000000000E+00  -2.04855632175232E-13
     -2.19009475321610E-11  -2.21058031643363E-11  -1.43116660572002E-17   1.40000000000000E-01   1.40000000000000E-01
      0.00000000000000E+00   0.00000000000000E+00   0.00000000000000E+00   0.00000000000000E+00   0.00000000000000E+00
     -6.50580056589886E-17   4.00000000000000E-02   4.00000000000000E-02   0.00000000000000E+00   0.00000000000000E+00
      2.21043639447259E-11   1.43921961038681E-15   2.21058031643363E-11   7.81559102808665E-18   3.90000000000000E-01
      3.90000000000000E-01   0.00000000000000E+00   0.00000000000000E+00   0.00000000000000E+00   0.00000000000000E+00
      0.00000000000000E+00   7.15540806881022E-17
      3.60000000000000E-01
      0.00000000000000E+00   0.00000000000000E+00   0.00000000000000E+00   0.00000000000000E+00  -2.05930784938439E-13
     -2.13253619904131E-11  -2.15312927753516E-11  -1.43546987116107E-17   1.44000000000000E-01   1.44000000000000E-01
      0.00000000000000E+00   0.00000000000000E+00   0.00000000000000E+00   0.00000000000000E+00   0.00000000000000E+00
     -6.39187497842231E-17   4.00000000000000E-02   4.00000000000000E-02   0.00000000000000E+00   0.00000000000000E+00
      2.15298656582958E-11   1.42711705572437E-15   2.15312927753516E-11   7.76588233208899E-18   3.90000000000000E-01
      3.90000000000000E-01   0.00000000000000E+00   0.00000000000000E+00   0.00000000000000E+00   0.00000000000000E+00
      0.00000000000000E+00   7.05075661637449E-17
      3.70000000000000E-01
      0.00000000000000E+00   0.00000000000000E+00   0.00000000000000E+00   0.00000000000000E+00  -2.07006972422300E-13