DF-ISE text

Info {
  version   = 1.0
  type      = xyplot
  datasets  = [
    "time"
    "source OuterVoltage" "source InnerVoltage" "source QuasiFermiPotential" "source DisplacementCurrent" "source eCurrent"
    "source hCurrent" "source TotalCurrent" "source Charge" "topGate OuterVoltage" "topGate InnerVoltage"
    "topGate QuasiFermiPotential" "topGate DisplacementCurrent" "topGate eCurrent" "topGate hCurrent" "topGate TotalCurrent"
    "topGate Charge" "drain OuterVoltage" "drain InnerVoltage" "drain QuasiFermiPotential" "drain DisplacementCurrent"
    "drain eCurrent" "drain hCurrent" "drain TotalCurrent" "drain Charge" "bottomGate OuterVoltage"
    "bottomGate InnerVoltage" "bottomGate QuasiFermiPotential" "bottomGate DisplacementCurrent" "bottomGate eCurrent" "bottomGate hCurrent"
    "bottomGate TotalCurrent" "bottomGate Charge" ]
  functions = [
    Time
    OuterVoltage InnerVoltage QuasiFermiPotential DisplacementCurrent eCurrent
    hCurrent TotalCurrent Charge OuterVoltage InnerVoltage
    QuasiFermiPotential DisplacementCurrent eCurrent hCurrent TotalCurrent
    Charge OuterVoltage InnerVoltage QuasiFermiPotential DisplacementCurrent
    eCurrent hCurrent TotalCurrent Charge OuterVoltage
    InnerVoltage QuasiFermiPotential DisplacementCurrent eCurrent hCurrent
    TotalCurrent Charge ]
}

Data {
      1.00000000000000E-02
      0.00000000000000E+00   0.00000000000000E+00   0.00000000000000E+00   0.00000000000000E+00  -1.66886845422225E-13
     -1.17329595627686E-11  -1.18998464081908E-11  -1.12044022124852E-17   4.00000000000000E-03   4.00000000000000E-03
      0.00000000000000E+00   0.00000000000000E+00   0.00000000000000E+00   0.00000000000000E+00   0.00000000000000E+00
     -6.57435705892768E-17   1.60000000000000E-01   1.60000000000000E-01   0.00000000000000E+00   0.00000000000000E+00
      1.18947289371265E-11   5.11747106434775E-15   1.18998464081908E-11   1.37300388955278E-17   2.40000000000000E-01
      2.40000000000000E-01   0.00000000000000E+00   0.00000000000000E+00   0.00000000000000E+00   0.00000000000000E+00
      0.00000000000000E+00   6.32179339062342E-17
      2.00000000000000E-02
      0.00000000000000E+00   0.00000000000000E+00   0.00000000000000E+00   0.00000000000000E+00  -1.68104732757708E-13
     -1.06208175407874E-11  -1.07889222735451E-11  -1.12485115683703E-17   8.00000000000000E-03   8.00000000000000E-03
      0.00000000000000E+00   0.00000000000000E+00   0.00000000000000E+00   0.00000000000000E+00   0.00000000000000E+00
     -6.46070448315996E-17   1.60000000000000E-01   1.60000000000000E-01   0.00000000000000E+00   0.00000000000000E+00
      1.07838331050460E-11   5.08916849909932E-15   1.07889222735451E-11   1.36868850518421E-17   2.40000000000000E-01
      2.40000000000000E-01   0.00000000000000E+00   0.00000000000000E+00   0.00000000000000E+00   0.00000000000000E+00
      0.00000000000000E+00   6.21686713481279E-17
      3.00000000000000E-02
      0.00000000000000E+00   0.00000000000000E+00   0.00000000000000E+00   0.00000000000000E+00  -1.69325425695428E-13
     -9.60598269504484E-12  -9.77530812074027E-12  -1.12925930342486E-17   1.20000000000000E-02   1.20000000000000E-02
      0.00000000000000E+00   0.00000000000000E+00   0.00000000000000E+00   0.00000000000000E+00   0.00000000000000E+00
     -6.34705283947376E-17   1.60000000000000E-01   1.60000000000000E-01   0.00000000000000E+00   0.00000000000000E+00
      9.77024722263860E-12   5.06089810166441E-15   9.77530812074027E-12   1.36437219484745E-17   2.40000000000000E-01
      2.40000000000000E-01   0.00000000000000E+00   0.00000000000000E+00   0.00000000000000E+00   0.00000000000000E+00
      0.00000000000000E+00   6.11193994805117E-17
      4.00000000000000E-02
      0.00000000000000E+00   0.00000000000000E+00   0.00000000000000E+00   0.00000000000000E+00  -1.70548904666019E-13
     -8.68094614270707E-12  -8.85149504737309E-12  -1.13366471862849E-17   1.60000000000000E-02   1.60000000000000E-02
      0.00000000000000E+00   0.00000000000000E+00   0.00000000000000E+00   0.00000000000000E+00   0.00000000000000E+00
     -6.23340209004947E-17   1.60000000000000E-01   1.60000000000000E-01   0.00000000000000E+00   0.00000000000000E+00
      8.84646238722213E-12   5.03266015095039E-15   8.85149504737308E-12   1.36005494061493E-17   2.40000000000000E-01
      2.40000000000000E-01   0.00000000000000E+00   0.00000000000000E+00   0.00000000000000E+00   0.00000000000000E+00
      0.00000000000000E+00   6.00701186806303E-17
      5.00000000000000E-02
      0.00000000000000E+00   0.00000000000000E+00   0.00000000000000E+00   0.00000000000000E+00  -1.71775149276830E-13
     -7.83868702478542E-12  -8.01046217406225E-12  -1.13806745874598E-17   2.00000000000000E-02   2.00000000000000E-02
      0.00000000000000E+00   0.00000000000000E+00   0.00000000000000E+00   0.00000000000000E+00   0.00000000000000E+00
     -6.11975219758267E-17   1.60000000000000E-01   1.60000000000000E-01   0.00000000000000E+00   0.00000000000000E+00
      8.00545771923419E-12   5.00445482806156E-15   8.01046217406225E-12   1.35573672426296E-17   2.40000000000000E-01
      2.40000000000000E-01   0.00000000000000E+00   0.00000000000000E+00   0.00000000000000E+00   0.00000000000000E+00
      0.00000000000000E+00   5.90208293206568E-17
      6.00000000000000E-02
      0.00000000000000E+00   0.00000000000000E+00   0.00000000000000E+00   0.00000000000000E+00  -1.73004138416114E-13
     -7.07264782028913E-12  -7.24565195870524E-12  -1.14246757878879E-17   2.40000000000000E-02   2.40000000000000E-02
      0.00000000000000E+00   0.00000000000000E+00   0.00000000000000E+00   0.00000000000000E+00   0.00000000000000E+00
     -6.00610312526101E-17   1.60000000000000E-01   1.60000000000000E-01   0.00000000000000E+00   0.00000000000000E+00
      7.24067567628541E-12   4.97628241982037E-15   7.24565195870524E-12   1.35141752725812E-17   2.40000000000000E-01
      2.40000000000000E-01   0.00000000000000E+00   0.00000000000000E+00   0.00000000000000E+00   0.00000000000000E+00
      0.00000000000000E+00   5.79715317679168E-17
      7.00000000000000E-02
      0.00000000000000E+00   0.00000000000000E+00   0.00000000000000E+00   0.00000000000000E+00  -1.74235850347079E-13
     -6.37671046649543E-12  -6.55094631684251E-12  -1.14686513251279E-17   2.80000000000000E-02   2.80000000000000E-02
      0.00000000000000E+00   0.00000000000000E+00   0.00000000000000E+00   0.00000000000000E+00   0.00000000000000E+00
     -5.89245483674167E-17   1.60000000000000E-01   1.60000000000000E-01   0.00000000000000E+00   0.00000000000000E+00
      6.54599817366348E-12   4.94814317903944E-15   6.55094631684252E-12   1.34709733074368E-17   2.40000000000000E-01
      2.40000000000000E-01   0.00000000000000E+00   0.00000000000000E+00   0.00000000000000E+00   0.00000000000000E+00
      0.00000000000000E+00   5.69222263851078E-17
      8.00000000000000E-02
      0.00000000000000E+00   0.00000000000000E+00   0.00000000000000E+00   0.00000000000000E+00  -1.75470262793201E-13
     -5.74517328129781E-12  -5.92064354409101E-12  -1.15126017244855E-17   3.20000000000000E-02   3.20000000000000E-02
      0.00000000000000E+00   0.00000000000000E+00   0.00000000000000E+00   0.00000000000000E+00   0.00000000000000E+00
     -5.77880729612928E-17   1.60000000000000E-01   1.60000000000000E-01   0.00000000000000E+00   0.00000000000000E+00
      5.91572350676921E-12   4.92003732179314E-15   5.92064354409101E-12   1.34277611552635E-17   2.40000000000000E-01
      2.40000000000000E-01   0.00000000000000E+00   0.00000000000000E+00   0.00000000000000E+00   0.00000000000000E+00
      0.00000000000000E+00   5.58729135305147E-17
      9.00000000000000E-02
      0.00000000000000E+00   0.00000000000000E+00   0.00000000000000E+00   0.00000000000000E+00  -1.76707353015686E-13
     -5.17272868236702E-12  -5.34943603538270E-12  -1.15565274993089E-17   3.60000000000000E-02   3.60000000000000E-02
      0.00000000000000E+00   0.00000000000000E+00   0.00000000000000E+00   0.00000000000000E+00   0.00000000000000E+00
     -5.66516046795425E-17   1.60000000000000E-01   1.60000000000000E-01   0.00000000000000E+00   0.00000000000000E+00
      5.34454407026372E-12   4.89196511898648E-15   5.34943603538270E-12   1.33845386206306E-17   2.40000000000000E-01
      2.40000000000000E-01   0.00000000000000E+00   0.00000000000000E+00   0.00000000000000E+00   0.00000000000000E+00
      0.00000000000000E+00   5.48235935582207E-17
      1.00000000000000E-01
      0.00000000000000E+00   0.00000000000000E+00   0.00000000000000E+00   0.00000000000000E+00  -1.77947097883277E-13
     -4.65444169688315E-12  -4.83238879476643E-12  -1.16004291512771E-17   4.00000000000000E-02   4.00000000000000E-02
      0.00000000000000E+00   0.00000000000000E+00   0.00000000000000E+00   0.00000000000000E+00   0.00000000000000E+00
     -5.55151431715156E-17   1.60000000000000E-01   1.60000000000000E-01   0.00000000000000E+00   0.00000000000000E+00
      4.82752486798360E-12   4.86392678283375E-15   4.83238879476644E-12   1.33413055044777E-17   2.40000000000000E-01
      2.40000000000000E-01   0.00000000000000E+00   0.00000000000000E+00   0.00000000000000E+00   0.00000000000000E+00
      0.00000000000000E+00   5.37742668183150E-17
      1.10000000000000E-01
      0.00000000000000E+00   0.00000000000000E+00   0.00000000000000E+00   0.00000000000000E+00  -1.79189473935612E-13
     -4.18572925561768E-12  -4.36491872955329E-12  -1.16443071706812E-17   4.40000000000000E-02   4.40000000000000E-02
      0.00000000000000E+00   0.00000000000000E+00   0.00000000000000E+00   0.00000000000000E+00   0.00000000000000E+00
     -5.43786880903997E-17   1.60000000000000E-01   1.60000000000000E-01   0.00000000000000E+00   0.00000000000000E+00
      4.36008280695197E-12   4.83592260132229E-15   4.36491872955330E-12   1.32980616039843E-17   2.40000000000000E-01
      2.40000000000000E-01   0.00000000000000E+00   0.00000000000000E+00   0.00000000000000E+00   0.00000000000000E+00
      0.00000000000000E+00   5.27249336570966E-17
      1.20000000000000E-01
      0.00000000000000E+00   0.00000000000000E+00   0.00000000000000E+00   0.00000000000000E+00  -1.80434457440850E-13
     -3.76234026345734E-12  -3.94277472089819E-12  -1.16881620366990E-17   4.80000000000000E-02   4.80000000000000E-02
      0.00000000000000E+00   0.00000000000000E+00   0.00000000000000E+00   0.00000000000000E+00   0.00000000000000E+00
     -5.32422390930148E-17   1.60000000000000E-01   1.60000000000000E-01   0.00000000000000E+00   0.00000000000000E+00
      3.93796676807272E-12   4.80795282547498E-15   3.94277472089819E-12   1.32548067124386E-17   2.40000000000000E-01
      2.40000000000000E-01   0.00000000000000E+00   0.00000000000000E+00   0.00000000000000E+00   0.00000000000000E+00
      0.00000000000000E+00   5.16755944172752E-17
      1.30000000000000E-01
      0.00000000000000E+00   0.00000000000000E+00   0.00000000000000E+00   0.00000000000000E+00  -1.81682024446903E-13
     -3.38033643864496E-12  -3.56201846309186E-12  -1.17319942176627E-17   5.20000000000000E-02   5.20000000000000E-02
      0.00000000000000E+00   0.00000000000000E+00   0.00000000000000E+00   0.00000000000000E+00   0.00000000000000E+00
     -5.21057958396129E-17   1.60000000000000E-01   1.60000000000000E-01   0.00000000000000E+00   0.00000000000000E+00
      3.55723844535263E-12   4.78001773923241E-15   3.56201846309186E-12   1.32115406191073E-17   2.40000000000000E-01
      2.40000000000000E-01   0.00000000000000E+00   0.00000000000000E+00   0.00000000000000E+00   0.00000000000000E+00
      0.00000000000000E+00   5.06262494381683E-17
      1.40000000000000E-01
      0.00000000000000E+00   0.00000000000000E+00   0.00000000000000E+00   0.00000000000000E+00  -1.82932150828512E-13
     -3.03607391155266E-12  -3.21900606238118E-12  -1.17758041713200E-17   5.60000000000000E-02   5.60000000000000E-02
      0.00000000000000E+00   0.00000000000000E+00   0.00000000000000E+00   0.00000000000000E+00   0.00000000000000E+00
     -5.09693579936797E-17   1.60000000000000E-01   1.60000000000000E-01   0.00000000000000E+00   0.00000000000000E+00
      3.21425394475720E-12   4.75211762398112E-15   3.21900606238118E-12   1.31682631091037E-17   2.40000000000000E-01
      2.40000000000000E-01   0.00000000000000E+00   0.00000000000000E+00   0.00000000000000E+00   0.00000000000000E+00
      0.00000000000000E+00   4.95768990558960E-17
      1.50000000000000E-01
      0.00000000000000E+00   0.00000000000000E+00   0.00000000000000E+00   0.00000000000000E+00  -1.84184812329604E-13
     -2.72618557349389E-12  -2.91037038582349E-12  -1.18195923450891E-17   6.00000000000000E-02   6.00000000000000E-02
      0.00000000000000E+00   0.00000000000000E+00   0.00000000000000E+00   0.00000000000000E+00   0.00000000000000E+00
     -4.98329252217399E-17   1.60000000000000E-01   1.60000000000000E-01   0.00000000000000E+00   0.00000000000000E+00
      2.90564613306815E-12   4.72425275534561E-15   2.91037038582349E-12   1.31249739632564E-17   2.40000000000000E-01
      2.40000000000000E-01   0.00000000000000E+00   0.00000000000000E+00   0.00000000000000E+00   0.00000000000000E+00
      0.00000000000000E+00   4.85275436035727E-17
      1.60000000000000E-01
      0.00000000000000E+00   0.00000000000000E+00   0.00000000000000E+00   0.00000000000000E+00  -1.85439984601030E-13
     -2.44756416523716E-12  -2.63300414983819E-12  -1.18633591763075E-17   6.40000000000000E-02   6.40000000000000E-02
      0.00000000000000E+00   0.00000000000000E+00   0.00000000000000E+00   0.00000000000000E+00   0.00000000000000E+00
     -4.86964971931650E-17   1.60000000000000E-01   1.60000000000000E-01   0.00000000000000E+00   0.00000000000000E+00
      2.62830772638660E-12   4.69642345160027E-15   2.63300414983820E-12   1.30816729579762E-17   2.40000000000000E-01
      2.40000000000000E-01   0.00000000000000E+00   0.00000000000000E+00   0.00000000000000E+00   0.00000000000000E+00
      0.00000000000000E+00   4.74781834114963E-17
      1.70000000000000E-01
      0.00000000000000E+00   0.00000000000000E+00   0.00000000000000E+00   0.00000000000000E+00  -1.86697643235537E-13
     -2.19734609402364E-12  -2.38404373725918E-12  -1.19071050924741E-17   6.80000000000000E-02   6.80000000000000E-02
      0.00000000000000E+00   0.00000000000000E+00   0.00000000000000E+00   0.00000000000000E+00   0.00000000000000E+00
     -4.75600735799840E-17   1.60000000000000E-01   1.60000000000000E-01   0.00000000000000E+00   0.00000000000000E+00
      2.37937510721579E-12   4.66863004338846E-15   2.38404373725918E-12   1.30383598651230E-17   2.40000000000000E-01
      2.40000000000000E-01   0.00000000000000E+00   0.00000000000000E+00   0.00000000000000E+00   0.00000000000000E+00
      0.00000000000000E+00   4.64288188073351E-17
      1.80000000000000E-01
      0.00000000000000E+00   0.00000000000000E+00   0.00000000000000E+00   0.00000000000000E+00  -1.87957763797949E-13
     -1.97289596741356E-12  -2.16085373121151E-12  -1.19508305114862E-17   7.20000000000000E-02   7.20000000000000E-02
      0.00000000000000E+00   0.00000000000000E+00   0.00000000000000E+00   0.00000000000000E+00   0.00000000000000E+00
     -4.64236540566961E-17   1.60000000000000E-01   1.60000000000000E-01   0.00000000000000E+00   0.00000000000000E+00
      2.15621285836265E-12   4.64087284885503E-15   2.16085373121151E-12   1.29950344518698E-17   2.40000000000000E-01
      2.40000000000000E-01   0.00000000000000E+00   0.00000000000000E+00   0.00000000000000E+00   0.00000000000000E+00
      0.00000000000000E+00   4.53794501163124E-17
      1.90000000000000E-01
      0.00000000000000E+00   0.00000000000000E+00   0.00000000000000E+00   0.00000000000000E+00  -1.89220321853780E-13
     -1.77179183158700E-12  -1.96101215344078E-12  -1.19945358418699E-17   7.60000000000000E-02   7.60000000000000E-02
      0.00000000000000E+00   0.00000000000000E+00   0.00000000000000E+00   0.00000000000000E+00   0.00000000000000E+00
     -4.52872383000862E-17   1.60000000000000E-01   1.60000000000000E-01   0.00000000000000E+00   0.00000000000000E+00
      1.95639900123278E-12   4.61315220799730E-15   1.96101215344078E-12   1.29516964805671E-17   2.40000000000000E-01
      2.40000000000000E-01   0.00000000000000E+00   0.00000000000000E+00   0.00000000000000E+00   0.00000000000000E+00
      0.00000000000000E+00   4.43300776613890E-17
      2.00000000000000E-01
      0.00000000000000E+00   0.00000000000000E+00   0.00000000000000E+00   0.00000000000000E+00  -1.90485292994181E-13
     -1.59181110094892E-12  -1.78229639394310E-12  -1.20382214830055E-17   8.00000000000000E-02   8.00000000000000E-02
      0.00000000000000E+00   0.00000000000000E+00   0.00000000000000E+00   0.00000000000000E+00   0.00000000000000E+00
     -4.41508259890423E-17   1.60000000000000E-01   1.60000000000000E-01   0.00000000000000E+00   0.00000000000000E+00
      1.77771092544726E-12   4.58546849584635E-15   1.78229639394310E-12   1.29083457086038E-17   2.40000000000000E-01
      2.40000000000000E-01   0.00000000000000E+00   0.00000000000000E+00   0.00000000000000E+00   0.00000000000000E+00
      0.00000000000000E+00   4.32807017634441E-17
      2.10000000000000E-01
      0.00000000000000E+00   0.00000000000000E+00   0.00000000000000E+00   0.00000000000000E+00  -1.91752652858081E-13
     -1.43091716534144E-12  -1.62266981819952E-12  -1.20818878253470E-17   8.40000000000000E-02   8.40000000000000E-02
      0.00000000000000E+00   0.00000000000000E+00   0.00000000000000E+00   0.00000000000000E+00   0.00000000000000E+00
     -4.30144168043744E-17   1.60000000000000E-01   1.60000000000000E-01   0.00000000000000E+00   0.00000000000000E+00
      1.61811199610270E-12   4.55782209682741E-15   1.62266981819952E-12   1.28649818882677E-17   2.40000000000000E-01
      2.40000000000000E-01   0.00000000000000E+00   0.00000000000000E+00   0.00000000000000E+00   0.00000000000000E+00
      0.00000000000000E+00   4.22313227414537E-17
      2.20000000000000E-01
      0.00000000000000E+00   0.00000000000000E+00   0.00000000000000E+00   0.00000000000000E+00  -1.93022377152697E-13
     -1.28724666066790E-12  -1.48026903782060E-12  -1.21255352506360E-17   8.80000000000000E-02   8.80000000000000E-02
      0.00000000000000E+00   0.00000000000000E+00   0.00000000000000E+00   0.00000000000000E+00   0.00000000000000E+00
     -4.18780104286354E-17   1.60000000000000E-01   1.60000000000000E-01   0.00000000000000E+00   0.00000000000000E+00
      1.47573882442178E-12   4.53021339881652E-15   1.48026903782060E-12   1.28216047666027E-17   2.40000000000000E-01
      2.40000000000000E-01   0.00000000000000E+00   0.00000000000000E+00   0.00000000000000E+00   0.00000000000000E+00
      0.00000000000000E+00   4.11819409126687E-17
      2.30000000000000E-01
      0.00000000000000E+00   0.00000000000000E+00   0.00000000000000E+00   0.00000000000000E+00  -1.94294441671869E-13
     -1.15909738814601E-12  -1.35339182981788E-12  -1.21691641321108E-17   9.20000000000000E-02   9.20000000000000E-02
      0.00000000000000E+00   0.00000000000000E+00   0.00000000000000E+00   0.00000000000000E+00   0.00000000000000E+00
     -4.07416065459439E-17   1.60000000000000E-01   1.60000000000000E-01   0.00000000000000E+00   0.00000000000000E+00
      1.34888918700561E-12   4.50264281227281E-15   1.35339182981788E-12   1.27782140852647E-17   2.40000000000000E-01
      2.40000000000000E-01   0.00000000000000E+00   0.00000000000000E+00   0.00000000000000E+00   0.00000000000000E+00
      0.00000000000000E+00   4.01325565927900E-17
      2.40000000000000E-01
      0.00000000000000E+00   0.00000000000000E+00   0.00000000000000E+00   0.00000000000000E+00  -1.95568822311890E-13
     -1.04491686687875E-12  -1.24048568919064E-12  -1.22127748347100E-17   9.60000000000000E-02   9.60000000000000E-02
      0.00000000000000E+00   0.00000000000000E+00   0.00000000000000E+00   0.00000000000000E+00   0.00000000000000E+00
     -3.96052048418081E-17   1.60000000000000E-01   1.60000000000000E-01   0.00000000000000E+00   0.00000000000000E+00
      1.23601057840830E-12   4.47511078233694E-15   1.24048568919064E-12   1.27348095803744E-17   2.40000000000000E-01
      2.40000000000000E-01   0.00000000000000E+00   0.00000000000000E+00   0.00000000000000E+00   0.00000000000000E+00
      0.00000000000000E+00   3.90831700961438E-17
      2.50000000000000E-01
      0.00000000000000E+00   0.00000000000000E+00   0.00000000000000E+00   0.00000000000000E+00  -1.96845495086133E-13
     -9.43291503971512E-13  -1.14013699905764E-12  -1.22563677152714E-17   1.00000000000000E-01   1.00000000000000E-01
      0.00000000000000E+00   0.00000000000000E+00   0.00000000000000E+00   0.00000000000000E+00   0.00000000000000E+00
     -3.84688050029504E-17   1.60000000000000E-01   1.60000000000000E-01   0.00000000000000E+00   0.00000000000000E+00
      1.13568938131229E-12   4.44761774535809E-15   1.14013699905765E-12   1.26913909823674E-17   2.40000000000000E-01
      2.40000000000000E-01   0.00000000000000E+00   0.00000000000000E+00   0.00000000000000E+00   0.00000000000000E+00
      0.00000000000000E+00   3.80337817358545E-17
      2.60000000000000E-01
      0.00000000000000E+00   0.00000000000000E+00   0.00000000000000E+00   0.00000000000000E+00  -1.98124436138268E-13
     -8.52936366222899E-13  -1.05106080236117E-12  -1.22999431227256E-17   1.04000000000000E-01   1.04000000000000E-01
      0.00000000000000E+00   0.00000000000000E+00   0.00000000000000E+00   0.00000000000000E+00   0.00000000000000E+00
     -3.73324067171344E-17   1.60000000000000E-01   1.60000000000000E-01   0.00000000000000E+00   0.00000000000000E+00
      1.04664063818838E-12   4.42016417278722E-15   1.05106080236117E-12   1.26479580158424E-17   2.40000000000000E-01
      2.40000000000000E-01   0.00000000000000E+00   0.00000000000000E+00   0.00000000000000E+00   0.00000000000000E+00
      0.00000000000000E+00   3.69843918240176E-17
      2.70000000000000E-01
      0.00000000000000E+00   0.00000000000000E+00   0.00000000000000E+00   0.00000000000000E+00  -1.99405621752824E-13
     -7.72685536782480E-13  -9.72091158535304E-13  -1.23435013982846E-17   1.08000000000000E-01   1.08000000000000E-01
      0.00000000000000E+00   0.00000000000000E+00   0.00000000000000E+00   0.00000000000000E+00   0.00000000000000E+00
     -3.61960096729917E-17   1.60000000000000E-01   1.60000000000000E-01   0.00000000000000E+00   0.00000000000000E+00
      9.67698407984681E-13   4.39275055062241E-15   9.72091158535303E-13   1.26045103994054E-17   2.40000000000000E-01
      2.40000000000000E-01   0.00000000000000E+00   0.00000000000000E+00   0.00000000000000E+00   0.00000000000000E+00
      0.00000000000000E+00   3.59350006718710E-17
      2.80000000000000E-01
      0.00000000000000E+00   0.00000000000000E+00   0.00000000000000E+00   0.00000000000000E+00  -2.00689028367068E-13
     -7.01483040116065E-13  -9.02172068483133E-13  -1.23870428756271E-17   1.12000000000000E-01   1.12000000000000E-01
      0.00000000000000E+00   0.00000000000000E+00   0.00000000000000E+00   0.00000000000000E+00   0.00000000000000E+00
     -3.50596135598501E-17   1.60000000000000E-01   1.60000000000000E-01   0.00000000000000E+00   0.00000000000000E+00
      8.97806691112303E-13   4.36537737082926E-15   9.02172068483133E-13   1.25610478455111E-17   2.40000000000000E-01
      2.40000000000000E-01   0.00000000000000E+00   0.00000000000000E+00   0.00000000000000E+00   0.00000000000000E+00
      0.00000000000000E+00   3.48856085899661E-17
      2.90000000000000E-01
      0.00000000000000E+00   0.00000000000000E+00   0.00000000000000E+00   0.00000000000000E+00  -2.01974632578457E-13
     -6.38374318347796E-13  -8.40348950926253E-13  -1.24305678810772E-17   1.16000000000000E-01   1.16000000000000E-01
      0.00000000000000E+00   0.00000000000000E+00   0.00000000000000E+00   0.00000000000000E+00   0.00000000000000E+00
     -3.39232180675619E-17   1.60000000000000E-01   1.60000000000000E-01   0.00000000000000E+00   0.00000000000000E+00
      8.36010905763904E-13   4.33804516234928E-15   8.40348950926254E-13   1.25175700603014E-17   2.40000000000000E-01
      2.40000000000000E-01   0.00000000000000E+00   0.00000000000000E+00   0.00000000000000E+00   0.00000000000000E+00
      0.00000000000000E+00   3.38362158883377E-17
      3.00000000000000E-01
      0.00000000000000E+00   0.00000000000000E+00   0.00000000000000E+00   0.00000000000000E+00  -2.03262411152848E-13
     -5.82498241750133E-13  -7.85760652902981E-13  -1.24740767337804E-17   1.20000000000000E-01   1.20000000000000E-01
      0.00000000000000E+00   0.00000000000000E+00   0.00000000000000E+00   0.00000000000000E+00   0.00000000000000E+00
     -3.27868228863338E-17   1.60000000000000E-01   1.60000000000000E-01   0.00000000000000E+00   0.00000000000000E+00
      7.81449898453044E-13   4.31075444993728E-15   7.85760652902981E-13   1.24740767434400E-17   2.40000000000000E-01
      2.40000000000000E-01   0.00000000000000E+00   0.00000000000000E+00   0.00000000000000E+00   0.00000000000000E+00
      0.00000000000000E+00   3.27868228766742E-17
      3.10000000000000E-01
      0.00000000000000E+00   0.00000000000000E+00   0.00000000000000E+00   0.00000000000000E+00  -2.04552341032803E-13
     -5.33079636321646E-13  -7.37631977354448E-13  -1.25175697458742E-17   1.24000000000000E-01   1.24000000000000E-01
      0.00000000000000E+00   0.00000000000000E+00   0.00000000000000E+00   0.00000000000000E+00   0.00000000000000E+00
     -3.16504277065559E-17   1.60000000000000E-01   1.60000000000000E-01   0.00000000000000E+00   0.00000000000000E+00
      7.33348471561491E-13   4.28350579295754E-15   7.37631977354449E-13   1.24305675879433E-17   2.40000000000000E-01
      2.40000000000000E-01   0.00000000000000E+00   0.00000000000000E+00   0.00000000000000E+00   0.00000000000000E+00
      0.00000000000000E+00   3.17374298644867E-17
      3.20000000000000E-01
      0.00000000000000E+00   0.00000000000000E+00   0.00000000000000E+00   0.00000000000000E+00  -2.05844399341911E-13
     -4.89422311060035E-13  -6.95266710401945E-13  -1.25610472226550E-17   1.28000000000000E-01   1.28000000000000E-01
      0.00000000000000E+00   0.00000000000000E+00   0.00000000000000E+00   0.00000000000000E+00   0.00000000000000E+00
     -3.05140322186319E-17   1.60000000000000E-01   1.60000000000000E-01   0.00000000000000E+00   0.00000000000000E+00
      6.91010410649698E-13   4.25629975224657E-15   6.95266710401945E-13   1.23870422800082E-17   2.40000000000000E-01
      2.40000000000000E-01   0.00000000000000E+00   0.00000000000000E+00   0.00000000000000E+00   0.00000000000000E+00
      0.00000000000000E+00   3.06880371612787E-17
      3.30000000000000E-01
      0.00000000000000E+00   0.00000000000000E+00   0.00000000000000E+00   0.00000000000000E+00  -2.07138563391508E-13
     -4.50902567860035E-13  -6.58041131251542E-13  -1.26045094627406E-17   1.32000000000000E-01   1.32000000000000E-01
      0.00000000000000E+00   0.00000000000000E+00   0.00000000000000E+00   0.00000000000000E+00   0.00000000000000E+00
     -2.93776361128089E-17   1.60000000000000E-01   1.60000000000000E-01   0.00000000000000E+00   0.00000000000000E+00
      6.53811994335375E-13   4.22913691616805E-15   6.58041131251543E-13   1.23435004988347E-17   2.40000000000000E-01
      2.40000000000000E-01   0.00000000000000E+00   0.00000000000000E+00   0.00000000000000E+00   0.00000000000000E+00
      0.00000000000000E+00   2.96386450767148E-17
      3.40000000000000E-01
      0.00000000000000E+00   0.00000000000000E+00   0.00000000000000E+00   0.00000000000000E+00  -2.08434810684112E-13
     -4.16963176832162E-13  -6.25397987516274E-13  -1.26479567582290E-17   1.36000000000000E-01   1.36000000000000E-01
      0.00000000000000E+00   0.00000000000000E+00   0.00000000000000E+00   0.00000000000000E+00   0.00000000000000E+00
     -2.82412390790071E-17   1.60000000000000E-01   1.60000000000000E-01   0.00000000000000E+00   0.00000000000000E+00
      6.21195969640980E-13   4.20201787529384E-15   6.25397987516274E-13   1.22999419164459E-17   2.40000000000000E-01
      2.40000000000000E-01   0.00000000000000E+00   0.00000000000000E+00   0.00000000000000E+00   0.00000000000000E+00
      0.00000000000000E+00   2.85892539207902E-17
      3.50000000000000E-01
      0.00000000000000E+00   0.00000000000000E+00   0.00000000000000E+00   0.00000000000000E+00  -2.09733118918764E-13
     -3.87107800224891E-13  -5.96840919143655E-13  -1.26913893948525E-17   1.40000000000000E-01   1.40000000000000E-01
      0.00000000000000E+00   0.00000000000000E+00   0.00000000000000E+00   0.00000000000000E+00   0.00000000000000E+00
     -2.71048408066501E-17   1.60000000000000E-01   1.60000000000000E-01   0.00000000000000E+00   0.00000000000000E+00
      5.92665975899014E-13   4.17494324464028E-15   5.96840919143654E-13   1.22563661975023E-17   2.40000000000000E-01
      2.40000000000000E-01   0.00000000000000E+00   0.00000000000000E+00   0.00000000000000E+00   0.00000000000000E+00
      0.00000000000000E+00   2.75398640040004E-17
      3.60000000000000E-01
      0.00000000000000E+00   0.00000000000000E+00   0.00000000000000E+00   0.00000000000000E+00  -2.11033465992801E-13
     -3.60895848188734E-13  -5.71929314181535E-13  -1.27348076521292E-17   1.44000000000000E-01   1.44000000000000E-01
      0.00000000000000E+00   0.00000000000000E+00   0.00000000000000E+00   0.00000000000000E+00   0.00000000000000E+00
     -2.59684409844940E-17   1.60000000000000E-01   1.60000000000000E-01   0.00000000000000E+00   0.00000000000000E+00
      5.67781400539862E-13   4.14791364167310E-15   5.71929314181535E-13   1.22127729991127E-17   2.40000000000000E-01
      2.40000000000000E-01   0.00000000000000E+00   0.00000000000000E+00   0.00000000000000E+00   0.00000000000000E+00
      0.00000000000000E+00   2.64904756375105E-17
      3.70000000000000E-01
      0.00000000000000E+00   0.00000000000000E+00   0.00000000000000E+00   0.00000000000000E+00  -2.12335830006394E-13