DF-ISE text

Info {
  version   = 1.0
  type      = xyplot
  datasets  = [
    "time"
    "source OuterVoltage" "source InnerVoltage" "source QuasiFermiPotential" "source DisplacementCurrent" "source eCurrent"
    "source hCurrent" "source TotalCurrent" "source Charge" "topGate OuterVoltage" "topGate InnerVoltage"
    "topGate QuasiFermiPotential" "topGate DisplacementCurrent" "topGate eCurrent" "topGate hCurrent" "topGate TotalCurrent"
    "topGate Charge" "drain OuterVoltage" "drain InnerVoltage" "drain QuasiFermiPotential" "drain DisplacementCurrent"
    "drain eCurrent" "drain hCurrent" "drain TotalCurrent" "drain Charge" "bottomGate OuterVoltage"
    "bottomGate InnerVoltage" "bottomGate QuasiFermiPotential" "bottomGate DisplacementCurrent" "bottomGate eCurrent" "bottomGate hCurrent"
    "bottomGate TotalCurrent" "bottomGate Charge" ]
  functions = [
    Time
    OuterVoltage InnerVoltage QuasiFermiPotential DisplacementCurrent eCurrent
    hCurrent TotalCurrent Charge OuterVoltage InnerVoltage
    QuasiFermiPotential DisplacementCurrent eCurrent hCurrent TotalCurrent
    Charge OuterVoltage InnerVoltage QuasiFermiPotential DisplacementCurrent
    eCurrent hCurrent TotalCurrent Charge OuterVoltage
    InnerVoltage QuasiFermiPotential DisplacementCurrent eCurrent hCurrent
    TotalCurrent Charge ]
}

Data {
      1.00000000000000E-02
      0.00000000000000E+00   0.00000000000000E+00   0.00000000000000E+00   0.00000000000000E+00  -1.24275085779676E-13
     -5.33054982181488E-13  -6.57330067961164E-13  -1.00905598292317E-17   4.00000000000000E-03   4.00000000000000E-03
      0.00000000000000E+00   0.00000000000000E+00   0.00000000000000E+00   0.00000000000000E+00   0.00000000000000E+00
     -3.84371290432676E-17   6.00000000000000E-02   6.00000000000000E-02   0.00000000000000E+00   0.00000000000000E+00
      6.53335853122639E-13   3.99421483852592E-15   6.57330067961165E-13   1.26480146993378E-17   1.40000000000000E-01
      1.40000000000000E-01   0.00000000000000E+00   0.00000000000000E+00   0.00000000000000E+00   0.00000000000000E+00
      0.00000000000000E+00   3.58796741731615E-17
      2.00000000000000E-02
      0.00000000000000E+00   0.00000000000000E+00   0.00000000000000E+00   0.00000000000000E+00  -1.25299100819843E-13
     -4.63659435601611E-13  -5.88958536421454E-13  -1.01355996458582E-17   8.00000000000000E-03   8.00000000000000E-03
      0.00000000000000E+00   0.00000000000000E+00   0.00000000000000E+00   0.00000000000000E+00   0.00000000000000E+00
     -3.72999871845540E-17   6.00000000000000E-02   6.00000000000000E-02   0.00000000000000E+00   0.00000000000000E+00
      5.84989085737811E-13   3.96945068364272E-15   5.88958536421454E-13   1.26045594555067E-17   1.40000000000000E-01
      1.40000000000000E-01   0.00000000000000E+00   0.00000000000000E+00   0.00000000000000E+00   0.00000000000000E+00
      0.00000000000000E+00   3.48310273749055E-17
      3.00000000000000E-02
      0.00000000000000E+00   0.00000000000000E+00   0.00000000000000E+00   0.00000000000000E+00  -1.26326500500486E-13
     -4.02733606689101E-13  -5.29060107189588E-13  -1.01805917848405E-17   1.20000000000000E-02   1.20000000000000E-02
      0.00000000000000E+00   0.00000000000000E+00   0.00000000000000E+00   0.00000000000000E+00   0.00000000000000E+00
     -3.61628620004522E-17   6.00000000000000E-02   6.00000000000000E-02   0.00000000000000E+00   0.00000000000000E+00
      5.25115384725282E-13   3.94472246430545E-15   5.29060107189587E-13   1.25610898397571E-17   1.40000000000000E-01
      1.40000000000000E-01   0.00000000000000E+00   0.00000000000000E+00   0.00000000000000E+00   0.00000000000000E+00
      0.00000000000000E+00   3.37823639455355E-17
      4.00000000000000E-02
      0.00000000000000E+00   0.00000000000000E+00   0.00000000000000E+00   0.00000000000000E+00  -1.27357253970703E-13
     -3.49339809949423E-13  -4.76697063920126E-13  -1.02255372808377E-17   1.60000000000000E-02   1.60000000000000E-02
      0.00000000000000E+00   0.00000000000000E+00   0.00000000000000E+00   0.00000000000000E+00   0.00000000000000E+00
     -3.50257528034495E-17   6.00000000000000E-02   6.00000000000000E-02   0.00000000000000E+00   0.00000000000000E+00
      4.72777032884713E-13   3.92003103541217E-15   4.76697063920126E-13   1.25176055155711E-17   1.40000000000000E-01
      1.40000000000000E-01   0.00000000000000E+00   0.00000000000000E+00   0.00000000000000E+00   0.00000000000000E+00
      0.00000000000000E+00   3.27336845687161E-17
      5.00000000000000E-02
      0.00000000000000E+00   0.00000000000000E+00   0.00000000000000E+00   0.00000000000000E+00  -1.28391330332582E-13
     -3.02631939457249E-13  -4.31023269789831E-13  -1.02704371443713E-17   2.00000000000000E-02   2.00000000000000E-02
      0.00000000000000E+00   0.00000000000000E+00   0.00000000000000E+00   0.00000000000000E+00   0.00000000000000E+00
     -3.38886589166575E-17   6.00000000000000E-02   6.00000000000000E-02   0.00000000000000E+00   0.00000000000000E+00
      4.27127893182251E-13   3.89537660758035E-15   4.31023269789831E-13   1.24741061432098E-17   1.40000000000000E-01
      1.40000000000000E-01   0.00000000000000E+00   0.00000000000000E+00   0.00000000000000E+00   0.00000000000000E+00
      0.00000000000000E+00   3.16849899178190E-17
      6.00000000000000E-02
      0.00000000000000E+00   0.00000000000000E+00   0.00000000000000E+00   0.00000000000000E+00  -1.29428698670611E-13
     -2.61847924383813E-13  -3.91276623054424E-13  -1.03152923623954E-17   2.40000000000000E-02   2.40000000000000E-02
      0.00000000000000E+00   0.00000000000000E+00   0.00000000000000E+00   0.00000000000000E+00   0.00000000000000E+00
     -3.27515796733013E-17   6.00000000000000E-02   6.00000000000000E-02   0.00000000000000E+00   0.00000000000000E+00
      3.87405863168920E-13   3.87075988550295E-15   3.91276623054423E-13   1.24305913792924E-17   1.40000000000000E-01
      1.40000000000000E-01   0.00000000000000E+00   0.00000000000000E+00   0.00000000000000E+00   0.00000000000000E+00
      0.00000000000000E+00   3.06362806564043E-17
      7.00000000000000E-02
      0.00000000000000E+00   0.00000000000000E+00   0.00000000000000E+00   0.00000000000000E+00  -1.30469328072806E-13
     -2.26302665961585E-13  -3.56771994034390E-13  -1.03601038988544E-17   2.80000000000000E-02   2.80000000000000E-02
      0.00000000000000E+00   0.00000000000000E+00   0.00000000000000E+00   0.00000000000000E+00   0.00000000000000E+00
     -3.16145144162259E-17   6.00000000000000E-02   6.00000000000000E-02   0.00000000000000E+00   0.00000000000000E+00
      3.52925812828251E-13   3.84618120613954E-15   3.56771994034390E-13   1.23870608763912E-17   1.40000000000000E-01
      1.40000000000000E-01   0.00000000000000E+00   0.00000000000000E+00   0.00000000000000E+00   0.00000000000000E+00
      0.00000000000000E+00   2.95875574386890E-17
      8.00000000000000E-02
      0.00000000000000E+00   0.00000000000000E+00   0.00000000000000E+00   0.00000000000000E+00  -1.31513187651899E-13
     -1.95381440449578E-13  -3.26894628101477E-13  -1.04048726952277E-17   3.20000000000000E-02   3.20000000000000E-02
      0.00000000000000E+00   0.00000000000000E+00   0.00000000000000E+00   0.00000000000000E+00   0.00000000000000E+00
     -3.04774624974152E-17   6.00000000000000E-02   6.00000000000000E-02   0.00000000000000E+00   0.00000000000000E+00
      3.23072986928507E-13   3.82164117296995E-15   3.26894628101477E-13   1.23435142826404E-17   1.40000000000000E-01
      1.40000000000000E-01   0.00000000000000E+00   0.00000000000000E+00   0.00000000000000E+00   0.00000000000000E+00
      0.00000000000000E+00   2.85388209100025E-17
      9.00000000000000E-02
      0.00000000000000E+00   0.00000000000000E+00   0.00000000000000E+00   0.00000000000000E+00  -1.32560246565764E-13
     -1.68533746763897E-13  -3.01093993329661E-13  -1.04495996710632E-17   3.60000000000000E-02   3.60000000000000E-02
      0.00000000000000E+00   0.00000000000000E+00   0.00000000000000E+00   0.00000000000000E+00   0.00000000000000E+00
     -2.93404232775263E-17   6.00000000000000E-02   6.00000000000000E-02   0.00000000000000E+00   0.00000000000000E+00
      2.97296852878259E-13   3.79714045140141E-15   3.01093993329661E-13   1.22999512413578E-17   1.40000000000000E-01
      1.40000000000000E-01   0.00000000000000E+00   0.00000000000000E+00   0.00000000000000E+00   0.00000000000000E+00
      0.00000000000000E+00   2.74900717072317E-17
      1.00000000000000E-01
      0.00000000000000E+00   0.00000000000000E+00   0.00000000000000E+00   0.00000000000000E+00  -1.33610474032264E-13
     -1.45267580494867E-13  -2.78878054527131E-13  -1.04942857244981E-17   4.00000000000000E-02   4.00000000000000E-02
      0.00000000000000E+00   0.00000000000000E+00   0.00000000000000E+00   0.00000000000000E+00   0.00000000000000E+00
     -2.82033961254344E-17   6.00000000000000E-02   6.00000000000000E-02   0.00000000000000E+00   0.00000000000000E+00
      2.75105375071347E-13   3.77267945578372E-15   2.78878054527131E-13   1.22563713906778E-17   1.40000000000000E-01
      1.40000000000000E-01   0.00000000000000E+00   0.00000000000000E+00   0.00000000000000E+00   0.00000000000000E+00
      0.00000000000000E+00   2.64413104592547E-17
      1.10000000000000E-01
      0.00000000000000E+00   0.00000000000000E+00   0.00000000000000E+00   0.00000000000000E+00  -1.34663839346889E-13
     -1.25144116163434E-13  -2.59807955510323E-13  -1.05389317327688E-17   4.40000000000000E-02   4.40000000000000E-02
      0.00000000000000E+00   0.00000000000000E+00   0.00000000000000E+00   0.00000000000000E+00   0.00000000000000E+00
     -2.70663804177905E-17   6.00000000000000E-02   6.00000000000000E-02   0.00000000000000E+00   0.00000000000000E+00
      2.56059696771132E-13   3.74825873919075E-15   2.59807955510323E-13   1.22127743631938E-17   1.40000000000000E-01
      1.40000000000000E-01   0.00000000000000E+00   0.00000000000000E+00   0.00000000000000E+00   0.00000000000000E+00
      0.00000000000000E+00   2.53925377873655E-17
      1.20000000000000E-01
      0.00000000000000E+00   0.00000000000000E+00   0.00000000000000E+00   0.00000000000000E+00  -1.35720311898606E-13
     -1.07772777794335E-13  -2.43493089692941E-13  -1.05835385527082E-17   4.80000000000000E-02   4.80000000000000E-02
      0.00000000000000E+00   0.00000000000000E+00   0.00000000000000E+00   0.00000000000000E+00   0.00000000000000E+00
     -2.59293755385892E-17   6.00000000000000E-02   6.00000000000000E-02   0.00000000000000E+00   0.00000000000000E+00
      2.39769210681193E-13   3.72387901174796E-15   2.43493089692941E-13   1.21691597856092E-17   1.40000000000000E-01
      1.40000000000000E-01   0.00000000000000E+00   0.00000000000000E+00   0.00000000000000E+00   0.00000000000000E+00
      0.00000000000000E+00   2.43437543056882E-17
      1.30000000000000E-01
      0.00000000000000E+00   0.00000000000000E+00   0.00000000000000E+00   0.00000000000000E+00  -1.36779861181223E-13
     -9.28066791511879E-14  -2.29586540332411E-13  -1.06281070212330E-17   5.20000000000000E-02   5.20000000000000E-02
      0.00000000000000E+00   0.00000000000000E+00   0.00000000000000E+00   0.00000000000000E+00   0.00000000000000E+00
     -2.47923808787468E-17   6.00000000000000E-02   6.00000000000000E-02   0.00000000000000E+00   0.00000000000000E+00
      2.25886999521042E-13   3.69954081136926E-15   2.29586540332411E-13   1.21255272783958E-17   1.40000000000000E-01
      1.40000000000000E-01   0.00000000000000E+00   0.00000000000000E+00   0.00000000000000E+00   0.00000000000000E+00
      0.00000000000000E+00   2.32949606215840E-17
      1.40000000000000E-01
      0.00000000000000E+00   0.00000000000000E+00   0.00000000000000E+00   0.00000000000000E+00  -1.37842456804971E-13
     -7.99384161198660E-14  -2.17780872924837E-13  -1.06726379558188E-17   5.60000000000000E-02   5.60000000000000E-02
      0.00000000000000E+00   0.00000000000000E+00   0.00000000000000E+00   0.00000000000000E+00   0.00000000000000E+00
     -2.36553958356887E-17   6.00000000000000E-02   6.00000000000000E-02   0.00000000000000E+00   0.00000000000000E+00
      2.14105628161447E-13   3.67524476339089E-15   2.17780872924838E-13   1.20818764554579E-17   1.40000000000000E-01
      1.40000000000000E-01   0.00000000000000E+00   0.00000000000000E+00   0.00000000000000E+00   0.00000000000000E+00
      0.00000000000000E+00   2.22461573360496E-17
      1.50000000000000E-01
      0.00000000000000E+00   0.00000000000000E+00   0.00000000000000E+00   0.00000000000000E+00  -1.38908068510206E-13
     -6.88961920827198E-14  -2.07804260592926E-13  -1.07171321549650E-17   6.00000000000000E-02   6.00000000000000E-02
      0.00000000000000E+00   0.00000000000000E+00   0.00000000000000E+00   0.00000000000000E+00   0.00000000000000E+00
     -2.25184198129449E-17   6.00000000000000E-02   6.00000000000000E-02   0.00000000000000E+00   0.00000000000000E+00
      2.04153269158047E-13   3.65099143487897E-15   2.07804260592926E-13   1.20382069238022E-17   1.40000000000000E-01
      1.40000000000000E-01   0.00000000000000E+00   0.00000000000000E+00   0.00000000000000E+00   0.00000000000000E+00
      0.00000000000000E+00   2.11973450441077E-17
      1.60000000000000E-01
      0.00000000000000E+00   0.00000000000000E+00   0.00000000000000E+00   0.00000000000000E+00  -1.39976666174770E-13
     -5.94402591703137E-14  -1.99416925345084E-13  -1.07615903986489E-17   6.40000000000000E-02   6.40000000000000E-02
      0.00000000000000E+00   0.00000000000000E+00   0.00000000000000E+00   0.00000000000000E+00   0.00000000000000E+00
     -2.13814522197536E-17   6.00000000000000E-02   6.00000000000000E-02   0.00000000000000E+00   0.00000000000000E+00
      1.95790143855805E-13   3.62678148927894E-15   1.99416925345084E-13   1.19945182832106E-17   1.40000000000000E-01
      1.40000000000000E-01   0.00000000000000E+00   0.00000000000000E+00   0.00000000000000E+00   0.00000000000000E+00
      0.00000000000000E+00   2.01485243351918E-17
      1.70000000000000E-01
      0.00000000000000E+00   0.00000000000000E+00   0.00000000000000E+00   0.00000000000000E+00  -1.41048219824739E-13
     -5.13596573528453E-14  -1.92407877177584E-13  -1.08060134487688E-17   6.80000000000000E-02   6.80000000000000E-02
      0.00000000000000E+00   0.00000000000000E+00   0.00000000000000E+00   0.00000000000000E+00   0.00000000000000E+00
     -2.02444924706724E-17   6.00000000000000E-02   6.00000000000000E-02   0.00000000000000E+00   0.00000000000000E+00
      1.88805261655320E-13   3.60261552226462E-15   1.92407877177584E-13   1.19508101259174E-17   1.40000000000000E-01
      1.40000000000000E-01   0.00000000000000E+00   0.00000000000000E+00   0.00000000000000E+00   0.00000000000000E+00
      0.00000000000000E+00   1.90996957935238E-17
      1.80000000000000E-01
      0.00000000000000E+00   0.00000000000000E+00   0.00000000000000E+00   0.00000000000000E+00  -1.42122699644630E-13
     -4.44692350252183E-14  -1.86591934669848E-13  -1.08504020495779E-17   7.20000000000000E-02   7.20000000000000E-02
      0.00000000000000E+00   0.00000000000000E+00   0.00000000000000E+00   0.00000000000000E+00   0.00000000000000E+00
     -1.91075399851960E-17   6.00000000000000E-02   6.00000000000000E-02   0.00000000000000E+00   0.00000000000000E+00
      1.83013440473223E-13   3.57849419662557E-15   1.86591934669848E-13   1.19070820362880E-17   1.40000000000000E-01
      1.40000000000000E-01   0.00000000000000E+00   0.00000000000000E+00   0.00000000000000E+00   0.00000000000000E+00
      0.00000000000000E+00   1.80508599984858E-17
      1.90000000000000E-01
      0.00000000000000E+00   0.00000000000000E+00   0.00000000000000E+00   0.00000000000000E+00  -1.43200075981294E-13
     -3.86069340900266E-14  -1.81807010071321E-13  -1.08947569281068E-17   7.60000000000000E-02   7.60000000000000E-02
      0.00000000000000E+00   0.00000000000000E+00   0.00000000000000E+00   0.00000000000000E+00   0.00000000000000E+00
     -1.79705941873794E-17   6.00000000000000E-02   6.00000000000000E-02   0.00000000000000E+00   0.00000000000000E+00
      1.78252591934530E-13   3.55441813679100E-15   1.81807010071321E-13   1.18633335904990E-17   1.40000000000000E-01
      1.40000000000000E-01   0.00000000000000E+00   0.00000000000000E+00   0.00000000000000E+00   0.00000000000000E+00
      0.00000000000000E+00   1.70020175249872E-17
      2.00000000000000E-01
      0.00000000000000E+00   0.00000000000000E+00   0.00000000000000E+00   0.00000000000000E+00  -1.44280319353676E-13
     -3.36313240756697E-14  -1.77911643429346E-13  -1.09390787945776E-17   8.00000000000000E-02   8.00000000000000E-02
      0.00000000000000E+00   0.00000000000000E+00   0.00000000000000E+00   0.00000000000000E+00   0.00000000000000E+00
     -1.68336545054680E-17   6.00000000000000E-02   6.00000000000000E-02   0.00000000000000E+00   0.00000000000000E+00
      1.74381255410962E-13   3.53038801838419E-15   1.77911643429346E-13   1.18195643562196E-17   1.40000000000000E-01
      1.40000000000000E-01   0.00000000000000E+00   0.00000000000000E+00   0.00000000000000E+00   0.00000000000000E+00
      0.00000000000000E+00   1.59531689438259E-17
      2.10000000000000E-01
      0.00000000000000E+00   0.00000000000000E+00   0.00000000000000E+00   0.00000000000000E+00  -1.45363400460247E-13
     -2.94193696003420E-14  -1.74782770060589E-13  -1.09833683428068E-17   8.40000000000000E-02   8.40000000000000E-02
      0.00000000000000E+00   0.00000000000000E+00   0.00000000000000E+00   0.00000000000000E+00   0.00000000000000E+00
     -1.56967203715316E-17   6.00000000000000E-02   6.00000000000000E-02   0.00000000000000E+00   0.00000000000000E+00
      1.71276365605336E-13   3.50640445525252E-15   1.74782770060589E-13   1.17757738922921E-17   1.40000000000000E-01
      1.40000000000000E-01   0.00000000000000E+00   0.00000000000000E+00   0.00000000000000E+00   0.00000000000000E+00
      0.00000000000000E+00   1.49043148220463E-17
      2.20000000000000E-01
      0.00000000000000E+00   0.00000000000000E+00   0.00000000000000E+00   0.00000000000000E+00  -1.46449290181811E-13
     -2.58644170188771E-14  -1.72313707200688E-13  -1.10276262506002E-17   8.80000000000000E-02   8.80000000000000E-02
      0.00000000000000E+00   0.00000000000000E+00   0.00000000000000E+00   0.00000000000000E+00   0.00000000000000E+00
     -1.45597912211037E-17   6.00000000000000E-02   6.00000000000000E-02   0.00000000000000E+00   0.00000000000000E+00
      1.68831239040236E-13   3.48246816045213E-15   1.72313707200688E-13   1.17319617484119E-17   1.40000000000000E-01
      1.40000000000000E-01   0.00000000000000E+00   0.00000000000000E+00   0.00000000000000E+00   0.00000000000000E+00
      0.00000000000000E+00   1.38554557232920E-17
      2.30000000000000E-01
      0.00000000000000E+00   0.00000000000000E+00   0.00000000000000E+00   0.00000000000000E+00  -1.47537959588538E-13
     -2.28743856250657E-14  -1.70412345213603E-13  -1.10718531801373E-17   9.20000000000000E-02   9.20000000000000E-02
      0.00000000000000E+00   0.00000000000000E+00   0.00000000000000E+00   0.00000000000000E+00   0.00000000000000E+00
     -1.34228664928246E-17   6.00000000000000E-02   6.00000000000000E-02   0.00000000000000E+00   0.00000000000000E+00
      1.66953765515479E-13   3.45857969812421E-15   1.70412345213603E-13   1.16881274648064E-17   1.40000000000000E-01
      1.40000000000000E-01   0.00000000000000E+00   0.00000000000000E+00   0.00000000000000E+00   0.00000000000000E+00
      0.00000000000000E+00   1.28065922081554E-17
      2.40000000000000E-01
      0.00000000000000E+00   0.00000000000000E+00   0.00000000000000E+00   0.00000000000000E+00  -1.48629379944335E-13
     -2.03701511613821E-14  -1.68999531105717E-13  -1.11160497783472E-17   9.60000000000000E-02   9.60000000000000E-02
      0.00000000000000E+00   0.00000000000000E+00   0.00000000000000E+00   0.00000000000000E+00   0.00000000000000E+00
     -1.22859456280885E-17   6.00000000000000E-02   6.00000000000000E-02   0.00000000000000E+00   0.00000000000000E+00
      1.65564791318320E-13   3.43473978739690E-15   1.68999531105717E-13   1.16442705719112E-17   1.40000000000000E-01
      1.40000000000000E-01   0.00000000000000E+00   0.00000000000000E+00   0.00000000000000E+00   0.00000000000000E+00
      0.00000000000000E+00   1.17577248345245E-17
      2.50000000000000E-01
      0.00000000000000E+00   0.00000000000000E+00   0.00000000000000E+00   0.00000000000000E+00  -1.49723522713923E-13
     -1.82841080892680E-14  -1.68007630803191E-13  -1.11602166772759E-17   1.00000000000000E-01   1.00000000000000E-01
      0.00000000000000E+00   0.00000000000000E+00   0.00000000000000E+00   0.00000000000000E+00   0.00000000000000E+00
     -1.11490280706935E-17   6.00000000000000E-02   6.00000000000000E-02   0.00000000000000E+00   0.00000000000000E+00
      1.64596681754448E-13   3.41094904874330E-15   1.68007630803191E-13   1.16003905900436E-17   1.40000000000000E-01
      1.40000000000000E-01   0.00000000000000E+00   0.00000000000000E+00   0.00000000000000E+00   0.00000000000000E+00
      0.00000000000000E+00   1.07088541579258E-17
      2.60000000000000E-01
      0.00000000000000E+00   0.00000000000000E+00   0.00000000000000E+00   0.00000000000000E+00  -1.50820359566392E-13
     -1.65589000126092E-14  -1.67379259579001E-13  -1.12043544944439E-17   1.04000000000000E-01   1.04000000000000E-01
      0.00000000000000E+00   0.00000000000000E+00   0.00000000000000E+00   0.00000000000000E+00   0.00000000000000E+00
     -1.00121132664949E-17   6.00000000000000E-02   6.00000000000000E-02   0.00000000000000E+00   0.00000000000000E+00
      1.63992051361638E-13   3.38720821736349E-15   1.67379259579001E-13   1.15564870290732E-17   1.40000000000000E-01
      1.40000000000000E-01   0.00000000000000E+00   0.00000000000000E+00   0.00000000000000E+00   0.00000000000000E+00
      0.00000000000000E+00   9.65998073186569E-18
      2.70000000000000E-01
      0.00000000000000E+00   0.00000000000000E+00   0.00000000000000E+00   0.00000000000000E+00  -1.51919862372121E-13
     -1.51463064864561E-14  -1.67066168858577E-13  -1.12484638331965E-17   1.08000000000000E-01   1.08000000000000E-01
      0.00000000000000E+00   0.00000000000000E+00   0.00000000000000E+00   0.00000000000000E+00   0.00000000000000E+00
     -8.87520066306030E-18   6.00000000000000E-02   6.00000000000000E-02   0.00000000000000E+00   0.00000000000000E+00
      1.63702651006291E-13   3.36351785228598E-15   1.67066168858577E-13   1.15125593880875E-17   1.40000000000000E-01
      1.40000000000000E-01   0.00000000000000E+00   0.00000000000000E+00   0.00000000000000E+00   0.00000000000000E+00
      0.00000000000000E+00   8.61110510816928E-18
      2.80000000000000E-01
      0.00000000000000E+00   0.00000000000000E+00   0.00000000000000E+00   0.00000000000000E+00  -1.53022003218688E-13
     -1.40062774249899E-14  -1.67028280643678E-13  -1.12925452830447E-17   1.12000000000000E-01   1.12000000000000E-01
      0.00000000000000E+00   0.00000000000000E+00   0.00000000000000E+00   0.00000000000000E+00   0.00000000000000E+00
     -7.73828970932722E-18   6.00000000000000E-02   6.00000000000000E-02   0.00000000000000E+00   0.00000000000000E+00
      1.63688401953462E-13   3.33987869021577E-15   1.67028280643678E-13   1.14686071550546E-17   1.40000000000000E-01
      1.40000000000000E-01   0.00000000000000E+00   0.00000000000000E+00   0.00000000000000E+00   0.00000000000000E+00
      0.00000000000000E+00   7.56222783731730E-18
      2.90000000000000E-01
      0.00000000000000E+00   0.00000000000000E+00   0.00000000000000E+00   0.00000000000000E+00  -1.54126754400636E-13
     -1.31061047808658E-14  -1.67232859181502E-13  -1.13365994199985E-17   1.16000000000000E-01   1.16000000000000E-01
      0.00000000000000E+00   0.00000000000000E+00   0.00000000000000E+00   0.00000000000000E+00   0.00000000000000E+00
     -6.60137985526233E-18   6.00000000000000E-02   6.00000000000000E-02   0.00000000000000E+00   0.00000000000000E+00
      1.63916567814460E-13   3.31629136704224E-15   1.67232859181502E-13   1.14246298064790E-17   1.40000000000000E-01
      1.40000000000000E-01   0.00000000000000E+00   0.00000000000000E+00   0.00000000000000E+00   0.00000000000000E+00
      0.00000000000000E+00   6.51334946878185E-18
      3.00000000000000E-01
      0.00000000000000E+00   0.00000000000000E+00   0.00000000000000E+00   0.00000000000000E+00  -1.55234088427525E-13
     -1.24197243278866E-14  -1.67653812755412E-13  -1.13806268068921E-17   1.20000000000000E-01   1.20000000000000E-01
      0.00000000000000E+00   0.00000000000000E+00   0.00000000000000E+00   0.00000000000000E+00   0.00000000000000E+00
     -5.46447055152161E-18   6.00000000000000E-02   6.00000000000000E-02   0.00000000000000E+00   0.00000000000000E+00
      1.64361056268750E-13   3.29275648666149E-15   1.67653812755412E-13   1.13806268070527E-17   1.40000000000000E-01
      1.40000000000000E-01   0.00000000000000E+00   0.00000000000000E+00   0.00000000000000E+00   0.00000000000000E+00
      0.00000000000000E+00   5.46447055136102E-18
      3.10000000000000E-01
      0.00000000000000E+00   0.00000000000000E+00   0.00000000000000E+00   0.00000000000000E+00  -1.56343978038261E-13
     -1.19271400641525E-14  -1.68271118102414E-13  -1.14246279937012E-17   1.24000000000000E-01   1.24000000000000E-01
      0.00000000000000E+00   0.00000000000000E+00   0.00000000000000E+00   0.00000000000000E+00   0.00000000000000E+00
     -4.32756124911162E-18   6.00000000000000E-02   6.00000000000000E-02   0.00000000000000E+00   0.00000000000000E+00
      1.65001843318562E-13   3.26927478385143E-15   1.68271118102413E-13   1.13365976093001E-17   1.40000000000000E-01
      1.40000000000000E-01   0.00000000000000E+00   0.00000000000000E+00   0.00000000000000E+00   0.00000000000000E+00
      0.00000000000000E+00   4.41559163351269E-18
      3.20000000000000E-01
      0.00000000000000E+00   0.00000000000000E+00   0.00000000000000E+00   0.00000000000000E+00  -1.57456396178323E-13
     -1.16139644287820E-14  -1.69070360607106E-13  -1.14686035178527E-17   1.28000000000000E-01   1.28000000000000E-01
      0.00000000000000E+00   0.00000000000000E+00   0.00000000000000E+00   0.00000000000000E+00   0.00000000000000E+00
     -3.19065139905110E-18   6.00000000000000E-02   6.00000000000000E-02   0.00000000000000E+00   0.00000000000000E+00
      1.65824513732517E-13   3.24584687458897E-15   1.69070360607106E-13   1.12925416532159E-17   1.40000000000000E-01
      1.40000000000000E-01   0.00000000000000E+00   0.00000000000000E+00   0.00000000000000E+00   0.00000000000000E+00
      0.00000000000000E+00   3.36671326368791E-18
      3.30000000000000E-01
      0.00000000000000E+00   0.00000000000000E+00   0.00000000000000E+00   0.00000000000000E+00  -1.58571316027438E-13
     -1.14710697943289E-14  -1.70042385821767E-13  -1.15125539045270E-17   1.32000000000000E-01   1.32000000000000E-01
      0.00000000000000E+00   0.00000000000000E+00   0.00000000000000E+00   0.00000000000000E+00   0.00000000000000E+00
     -2.05374045203285E-18   6.00000000000000E-02   6.00000000000000E-02   0.00000000000000E+00   0.00000000000000E+00
      1.66819912402222E-13   3.22247341954467E-15   1.70042385821766E-13   1.12484583658954E-17   1.40000000000000E-01
      1.40000000000000E-01   0.00000000000000E+00   0.00000000000000E+00   0.00000000000000E+00   0.00000000000000E+00
      0.00000000000000E+00   2.31783599066440E-18
      3.40000000000000E-01
      0.00000000000000E+00   0.00000000000000E+00   0.00000000000000E+00   0.00000000000000E+00  -1.59688710982589E-13
     -1.14943461925809E-14  -1.71183057175170E-13  -1.15564796669528E-17   1.36000000000000E-01   1.36000000000000E-01
      0.00000000000000E+00   0.00000000000000E+00   0.00000000000000E+00   0.00000000000000E+00   0.00000000000000E+00
     -9.16827858085135E-19   6.00000000000000E-02   6.00000000000000E-02   0.00000000000000E+00   0.00000000000000E+00
      1.67983902093397E-13   3.19915508177294E-15   1.71183057175170E-13   1.12043471611579E-17   1.40000000000000E-01
      1.40000000000000E-01   0.00000000000000E+00   0.00000000000000E+00   0.00000000000000E+00   0.00000000000000E+00
      0.00000000000000E+00   1.26896036388011E-18
      3.50000000000000E-01
      0.00000000000000E+00   0.00000000000000E+00   0.00000000000000E+00   0.00000000000000E+00  -1.60808554668533E-13
     -1.16845619887728E-14  -1.72493116657306E-13  -1.16003813066951E-17   1.40000000000000E-01   1.40000000000000E-01
      0.00000000000000E+00   0.00000000000000E+00   0.00000000000000E+00   0.00000000000000E+00   0.00000000000000E+00
      2.20086933767487E-19   6.00000000000000E-02   6.00000000000000E-02   0.00000000000000E+00   0.00000000000000E+00
      1.69317224180550E-13   3.17589247675589E-15   1.72493116657306E-13   1.11602074391602E-17   1.40000000000000E-01
      1.40000000000000E-01   0.00000000000000E+00   0.00000000000000E+00   0.00000000000000E+00   0.00000000000000E+00
      0.00000000000000E+00   2.20086933767456E-19
      3.60000000000000E-01
      0.00000000000000E+00   0.00000000000000E+00   0.00000000000000E+00   0.00000000000000E+00  -1.61930820938961E-13
     -1.20473251273732E-14  -1.73978146066334E-13  -1.16442593139356E-17   1.44000000000000E-01   1.44000000000000E-01
      0.00000000000000E+00   0.00000000000000E+00   0.00000000000000E+00   0.00000000000000E+00   0.00000000000000E+00
      1.35700447584426E-18   6.00000000000000E-02   6.00000000000000E-02   0.00000000000000E+00   0.00000000000000E+00
      1.70825459781751E-13   3.15268628458293E-15   1.73978146066334E-13   1.11160385860027E-17   1.40000000000000E-01
      1.40000000000000E-01   0.00000000000000E+00   0.00000000000000E+00   0.00000000000000E+00   0.00000000000000E+00
      0.00000000000000E+00  -8.28783747911396E-19
      3.70000000000000E-01
      0.00000000000000E+00   0.00000000000000E+00   0.00000000000000E+00   0.00000000000000E+00  -1.63055483874940E-13