DF-ISE text

Info {
  version   = 1.0
  type      = xyplot
  datasets  = [
    "time"
    "source OuterVoltage" "source InnerVoltage" "source QuasiFermiPotential" "source DisplacementCurrent" "source eCurrent"
    "source hCurrent" "source TotalCurrent" "source Charge" "topGate OuterVoltage" "topGate InnerVoltage"
    "topGate QuasiFermiPotential" "topGate DisplacementCurrent" "topGate eCurrent" "topGate hCurrent" "topGate TotalCurrent"
    "topGate Charge" "drain OuterVoltage" "drain InnerVoltage" "drain QuasiFermiPotential" "drain DisplacementCurrent"
    "drain eCurrent" "drain hCurrent" "drain TotalCurrent" "drain Charge" "bottomGate OuterVoltage"
    "bottomGate InnerVoltage" "bottomGate QuasiFermiPotential" "bottomGate DisplacementCurrent" "bottomGate eCurrent" "bottomGate hCurrent"
    "bottomGate TotalCurrent" "bottomGate Charge" ]
  functions = [
    Time
    OuterVoltage InnerVoltage QuasiFermiPotential DisplacementCurrent eCurrent
    hCurrent TotalCurrent Charge OuterVoltage InnerVoltage
    QuasiFermiPotential DisplacementCurrent eCurrent hCurrent TotalCurrent
    Charge OuterVoltage InnerVoltage QuasiFermiPotential DisplacementCurrent
    eCurrent hCurrent TotalCurrent Charge OuterVoltage
    InnerVoltage QuasiFermiPotential DisplacementCurrent eCurrent hCurrent
    TotalCurrent Charge ]
}

Data {
      1.00000000000000E-02
      0.00000000000000E+00   0.00000000000000E+00   0.00000000000000E+00   0.00000000000000E+00  -3.97593844842654E-14
     -7.80427635333027E-14  -1.17802148017568E-13  -9.52305254918285E-18   4.00000000000000E-03   4.00000000000000E-03
      0.00000000000000E+00   0.00000000000000E+00   0.00000000000000E+00   0.00000000000000E+00   0.00000000000000E+00
     -2.47876497564900E-17   1.00000000000000E-02   1.00000000000000E-02   0.00000000000000E+00   0.00000000000000E+00
      1.16490797269873E-13   1.31135074769547E-15   1.17802148017568E-13   1.21038985476310E-17   9.00000000000000E-02
      9.00000000000000E-02   0.00000000000000E+00   0.00000000000000E+00   0.00000000000000E+00   0.00000000000000E+00
      0.00000000000000E+00   2.22068037580419E-17
      2.00000000000000E-02
      0.00000000000000E+00   0.00000000000000E+00   0.00000000000000E+00   0.00000000000000E+00  -4.01075753549036E-14
     -6.63770981752654E-14  -1.06484673530169E-13  -9.56878636059976E-18   8.00000000000000E-03   8.00000000000000E-03
      0.00000000000000E+00   0.00000000000000E+00   0.00000000000000E+00   0.00000000000000E+00   0.00000000000000E+00
     -2.36500503828124E-17   1.00000000000000E-02   1.00000000000000E-02   0.00000000000000E+00   0.00000000000000E+00
      1.05181932561293E-13   1.30274096887559E-15   1.06484673530169E-13   1.20602226388369E-17   9.00000000000000E-02
      9.00000000000000E-02   0.00000000000000E+00   0.00000000000000E+00   0.00000000000000E+00   0.00000000000000E+00
      0.00000000000000E+00   2.11586141045752E-17
      3.00000000000000E-02
      0.00000000000000E+00   0.00000000000000E+00   0.00000000000000E+00   0.00000000000000E+00  -4.04571148845418E-14
     -5.63958267558345E-14  -9.68529416403763E-14  -9.61445727816482E-18   1.20000000000000E-02   1.20000000000000E-02
      0.00000000000000E+00   0.00000000000000E+00   0.00000000000000E+00   0.00000000000000E+00   0.00000000000000E+00
     -2.25124736221679E-17   1.00000000000000E-02   1.00000000000000E-02   0.00000000000000E+00   0.00000000000000E+00
      9.55587966650048E-14   1.29414497537150E-15   9.68529416403763E-14   1.20165289795757E-17   9.00000000000000E-02
      9.00000000000000E-02   0.00000000000000E+00   0.00000000000000E+00   0.00000000000000E+00   0.00000000000000E+00
      0.00000000000000E+00   2.01104019207570E-17
      4.00000000000000E-02
      0.00000000000000E+00   0.00000000000000E+00   0.00000000000000E+00   0.00000000000000E+00  -4.08079918137569E-14
     -4.78744298083654E-14  -8.86824216221222E-14  -9.66006669130407E-18   1.60000000000000E-02   1.60000000000000E-02
      0.00000000000000E+00   0.00000000000000E+00   0.00000000000000E+00   0.00000000000000E+00   0.00000000000000E+00
     -2.13749185308819E-17   1.00000000000000E-02   1.00000000000000E-02   0.00000000000000E+00   0.00000000000000E+00
      8.73968591235397E-14   1.28556249858240E-15   8.86824216221221E-14   1.19728170795886E-17   9.00000000000000E-02
      9.00000000000000E-02   0.00000000000000E+00   0.00000000000000E+00   0.00000000000000E+00   0.00000000000000E+00
      0.00000000000000E+00   1.90621681425974E-17
      5.00000000000000E-02
      0.00000000000000E+00   0.00000000000000E+00   0.00000000000000E+00   0.00000000000000E+00  -4.11601948417304E-14
     -4.06154901940968E-14  -8.17756850358272E-14  -9.70561595706737E-18   2.00000000000000E-02   2.00000000000000E-02
      0.00000000000000E+00   0.00000000000000E+00   0.00000000000000E+00   0.00000000000000E+00   0.00000000000000E+00
     -2.02373841812115E-17   1.00000000000000E-02   1.00000000000000E-02   0.00000000000000E+00   0.00000000000000E+00
      8.04986910445559E-14   1.27699399127123E-15   8.17756850358271E-14   1.19290864474337E-17   9.00000000000000E-02
      9.00000000000000E-02   0.00000000000000E+00   0.00000000000000E+00   0.00000000000000E+00   0.00000000000000E+00
      0.00000000000000E+00   1.80139136908451E-17
      6.00000000000000E-02
      0.00000000000000E+00   0.00000000000000E+00   0.00000000000000E+00   0.00000000000000E+00  -4.15137126264998E-14
     -3.44458289889049E-14  -7.59595416154046E-14  -9.75110640087024E-18   2.40000000000000E-02   2.40000000000000E-02
      0.00000000000000E+00   0.00000000000000E+00   0.00000000000000E+00   0.00000000000000E+00   0.00000000000000E+00
     -1.90998696605339E-17   1.00000000000000E-02   1.00000000000000E-02   0.00000000000000E+00   0.00000000000000E+00
      7.46911017778225E-14   1.26843983758220E-15   7.59595416154047E-14   1.18853365896651E-17   9.00000000000000E-02
      9.00000000000000E-02   0.00000000000000E+00   0.00000000000000E+00   0.00000000000000E+00   0.00000000000000E+00
      0.00000000000000E+00   1.69656394717390E-17
      7.00000000000000E-02
      0.00000000000000E+00   0.00000000000000E+00   0.00000000000000E+00   0.00000000000000E+00  -4.18685338017544E-14
     -2.92138950342017E-14  -7.10824288359562E-14  -9.79653931722110E-18   2.80000000000000E-02   2.80000000000000E-02
      0.00000000000000E+00   0.00000000000000E+00   0.00000000000000E+00   0.00000000000000E+00   0.00000000000000E+00
     -1.79623740705660E-17   1.00000000000000E-02   1.00000000000000E-02   0.00000000000000E+00   0.00000000000000E+00
      6.98225281550213E-14   1.25990068093484E-15   7.10824288359561E-14   1.18415670100523E-17   9.00000000000000E-02
      9.00000000000000E-02   0.00000000000000E+00   0.00000000000000E+00   0.00000000000000E+00   0.00000000000000E+00
      0.00000000000000E+00   1.59173463777348E-17
      8.00000000000000E-02
      0.00000000000000E+00   0.00000000000000E+00   0.00000000000000E+00   0.00000000000000E+00  -4.22246469752664E-14
     -2.47873894045330E-14  -6.70120363797993E-14  -9.84191597043378E-18   3.20000000000000E-02   3.20000000000000E-02
      0.00000000000000E+00   0.00000000000000E+00   0.00000000000000E+00   0.00000000000000E+00   0.00000000000000E+00
     -1.68248965266102E-17   1.00000000000000E-02   1.00000000000000E-02   0.00000000000000E+00   0.00000000000000E+00
      6.57606600086824E-14   1.25137637111697E-15   6.70120363797993E-14   1.17977772088351E-17   9.00000000000000E-02
      9.00000000000000E-02   0.00000000000000E+00   0.00000000000000E+00   0.00000000000000E+00   0.00000000000000E+00
      0.00000000000000E+00   1.48690352882090E-17
      9.00000000000000E-02
      0.00000000000000E+00   0.00000000000000E+00   0.00000000000000E+00   0.00000000000000E+00  -4.25820407387778E-14
     -2.10511130016426E-14  -6.36331537404204E-14  -9.88723759532545E-18   3.60000000000000E-02   3.60000000000000E-02
      0.00000000000000E+00   0.00000000000000E+00   0.00000000000000E+00   0.00000000000000E+00   0.00000000000000E+00
     -1.56874361568269E-17   1.00000000000000E-02   1.00000000000000E-02   0.00000000000000E+00   0.00000000000000E+00
      6.23902862939606E-14   1.24286744645973E-15   6.36331537404203E-14   1.17539666820116E-17   9.00000000000000E-02
      9.00000000000000E-02   0.00000000000000E+00   0.00000000000000E+00   0.00000000000000E+00   0.00000000000000E+00
      0.00000000000000E+00   1.38207070701407E-17
      1.00000000000000E-01
      0.00000000000000E+00   0.00000000000000E+00   0.00000000000000E+00   0.00000000000000E+00  -4.29407036786298E-14
     -1.79050172164990E-14  -6.08457208951288E-14  -9.93250539790031E-18   4.00000000000000E-02   4.00000000000000E-02
      0.00000000000000E+00   0.00000000000000E+00   0.00000000000000E+00   0.00000000000000E+00   0.00000000000000E+00
     -1.45499921015298E-17   1.00000000000000E-02   1.00000000000000E-02   0.00000000000000E+00   0.00000000000000E+00
      5.96113466759108E-14   1.23437421921796E-15   6.08457208951288E-14   1.17101349206553E-17   9.00000000000000E-02
      9.00000000000000E-02   0.00000000000000E+00   0.00000000000000E+00   0.00000000000000E+00   0.00000000000000E+00
      0.00000000000000E+00   1.27723625787749E-17
      1.10000000000000E-01
      0.00000000000000E+00   0.00000000000000E+00   0.00000000000000E+00   0.00000000000000E+00  -4.33006243709106E-14
     -1.52624465318656E-14  -5.85630709027762E-14  -9.97772055601904E-18   4.40000000000000E-02   4.40000000000000E-02
      0.00000000000000E+00   0.00000000000000E+00   0.00000000000000E+00   0.00000000000000E+00   0.00000000000000E+00
     -1.34125635125040E-17   1.00000000000000E-02   1.00000000000000E-02   0.00000000000000E+00   0.00000000000000E+00
      5.73371740528404E-14   1.22589684993578E-15   5.85630709027762E-14   1.16662814102577E-17   9.00000000000000E-02
      9.00000000000000E-02   0.00000000000000E+00   0.00000000000000E+00   0.00000000000000E+00   0.00000000000000E+00
      0.00000000000000E+00   1.17240026582654E-17
      1.20000000000000E-01
      0.00000000000000E+00   0.00000000000000E+00   0.00000000000000E+00   0.00000000000000E+00  -4.36617914021043E-14
     -1.30485583472269E-14  -5.67103497493311E-14  -1.00228842200543E-17   4.80000000000000E-02   4.80000000000000E-02
      0.00000000000000E+00   0.00000000000000E+00   0.00000000000000E+00   0.00000000000000E+00   0.00000000000000E+00
     -1.22751495523435E-17   1.00000000000000E-02   1.00000000000000E-02   0.00000000000000E+00   0.00000000000000E+00
      5.54929141879424E-14   1.21743556138867E-15   5.67103497493311E-14   1.16224056300955E-17   9.00000000000000E-02
      9.00000000000000E-02   0.00000000000000E+00   0.00000000000000E+00   0.00000000000000E+00   0.00000000000000E+00
      0.00000000000000E+00   1.06756281423024E-17
      1.30000000000000E-01
      0.00000000000000E+00   0.00000000000000E+00   0.00000000000000E+00   0.00000000000000E+00  -4.40241933645286E-14
     -1.11989070593841E-14  -5.52231004239127E-14  -1.00679975135325E-17   5.20000000000000E-02   5.20000000000000E-02
      0.00000000000000E+00   0.00000000000000E+00   0.00000000000000E+00   0.00000000000000E+00   0.00000000000000E+00
     -1.11377493938078E-17   1.00000000000000E-02   1.00000000000000E-02   0.00000000000000E+00   0.00000000000000E+00
      5.40141092021020E-14   1.20899122181071E-15   5.52231004239127E-14   1.15785070526172E-17   9.00000000000000E-02
      9.00000000000000E-02   0.00000000000000E+00   0.00000000000000E+00   0.00000000000000E+00   0.00000000000000E+00
      0.00000000000000E+00   9.62723985472317E-18
      1.40000000000000E-01
      0.00000000000000E+00   0.00000000000000E+00   0.00000000000000E+00   0.00000000000000E+00  -4.43878188546145E-14
     -9.65817706970339E-15  -5.40459959243179E-14  -1.01130615337617E-17   5.60000000000000E-02   5.60000000000000E-02
      0.00000000000000E+00   0.00000000000000E+00   0.00000000000000E+00   0.00000000000000E+00   0.00000000000000E+00
     -1.00003622191959E-17   1.00000000000000E-02   1.00000000000000E-02   0.00000000000000E+00   0.00000000000000E+00
      5.28454324568461E-14   1.20056346747170E-15   5.40459959243178E-14   1.15345851428490E-17   9.00000000000000E-02
      9.00000000000000E-02   0.00000000000000E+00   0.00000000000000E+00   0.00000000000000E+00   0.00000000000000E+00
      0.00000000000000E+00   8.57883861010858E-18
      1.50000000000000E-01
      0.00000000000000E+00   0.00000000000000E+00   0.00000000000000E+00   0.00000000000000E+00  -4.47526564945533E-14
     -8.37905959114084E-15  -5.31317160856941E-14  -1.01580773524464E-17   6.00000000000000E-02   6.00000000000000E-02
      0.00000000000000E+00   0.00000000000000E+00   0.00000000000000E+00   0.00000000000000E+00   0.00000000000000E+00
     -8.86298721973549E-18   1.00000000000000E-02   1.00000000000000E-02   0.00000000000000E+00   0.00000000000000E+00
      5.19395630680909E-14   1.19215301760325E-15   5.31317160856941E-14   1.14906393578161E-17   9.00000000000000E-02
      9.00000000000000E-02   0.00000000000000E+00   0.00000000000000E+00   0.00000000000000E+00   0.00000000000000E+00
      0.00000000000000E+00   7.53042521436580E-18
      1.60000000000000E-01
      0.00000000000000E+00   0.00000000000000E+00   0.00000000000000E+00   0.00000000000000E+00  -4.51186949234807E-14
     -7.32125419347286E-15  -5.24399491169536E-14  -1.02030460162888E-17   6.40000000000000E-02   6.40000000000000E-02
      0.00000000000000E+00   0.00000000000000E+00   0.00000000000000E+00   0.00000000000000E+00   0.00000000000000E+00
     -7.72562359498777E-18   1.00000000000000E-02   1.00000000000000E-02   0.00000000000000E+00   0.00000000000000E+00
      5.12561889550617E-14   1.18376016189181E-15   5.24399491169535E-14   1.14466691459778E-17   9.00000000000000E-02
      9.00000000000000E-02   0.00000000000000E+00   0.00000000000000E+00   0.00000000000000E+00   0.00000000000000E+00
      0.00000000000000E+00   6.48200046529880E-18
      1.70000000000000E-01
      0.00000000000000E+00   0.00000000000000E+00   0.00000000000000E+00   0.00000000000000E+00  -4.54859227990590E-14
     -6.45059027838952E-15  -5.19365130774485E-14  -1.02479685475775E-17   6.80000000000000E-02   6.80000000000000E-02
      0.00000000000000E+00   0.00000000000000E+00   0.00000000000000E+00   0.00000000000000E+00   0.00000000000000E+00
     -6.58827055226452E-18   1.00000000000000E-02   1.00000000000000E-02   0.00000000000000E+00   0.00000000000000E+00
      5.07611281774783E-14   1.17538489997020E-15   5.19365130774485E-14   1.14026739466748E-17   9.00000000000000E-02
      9.00000000000000E-02   0.00000000000000E+00   0.00000000000000E+00   0.00000000000000E+00   0.00000000000000E+00
      0.00000000000000E+00   5.43356515316726E-18
      1.80000000000000E-01
      0.00000000000000E+00   0.00000000000000E+00   0.00000000000000E+00   0.00000000000000E+00  -4.58543288143946E-14
     -5.73825800744319E-15  -5.15925868218378E-14  -1.02928459447629E-17   7.20000000000000E-02   7.20000000000000E-02
      0.00000000000000E+00   0.00000000000000E+00   0.00000000000000E+00   0.00000000000000E+00   0.00000000000000E+00
     -5.45092730605815E-18   1.00000000000000E-02   1.00000000000000E-02   0.00000000000000E+00   0.00000000000000E+00
      5.04255590452256E-14   1.16702777661222E-15   5.15925868218378E-14   1.13586531895860E-17   9.00000000000000E-02
      9.00000000000000E-02   0.00000000000000E+00   0.00000000000000E+00   0.00000000000000E+00   0.00000000000000E+00
      0.00000000000000E+00   4.38512006123503E-18
      1.90000000000000E-01
      0.00000000000000E+00   0.00000000000000E+00   0.00000000000000E+00   0.00000000000000E+00  -4.62239016947698E-14
     -5.16013756965641E-15  -5.13840392644262E-14  -1.03376791830199E-17   7.60000000000000E-02   7.60000000000000E-02
      0.00000000000000E+00   0.00000000000000E+00   0.00000000000000E+00   0.00000000000000E+00   0.00000000000000E+00
     -4.31359307748262E-18   1.00000000000000E-02   1.00000000000000E-02   0.00000000000000E+00   0.00000000000000E+00
      5.02253502216085E-14   1.15868904281774E-15   5.13840392644262E-14   1.13146062941935E-17   9.00000000000000E-02
      9.00000000000000E-02   0.00000000000000E+00   0.00000000000000E+00   0.00000000000000E+00   0.00000000000000E+00
      0.00000000000000E+00   3.33666596630896E-18
      2.00000000000000E-01
      0.00000000000000E+00   0.00000000000000E+00   0.00000000000000E+00   0.00000000000000E+00  -4.65946301935556E-14
     -4.69622161380529E-15  -5.12908518073609E-14  -1.03824692147990E-17   8.00000000000000E-02   8.00000000000000E-02
      0.00000000000000E+00   0.00000000000000E+00   0.00000000000000E+00   0.00000000000000E+00   0.00000000000000E+00
     -3.17626709372449E-18   1.00000000000000E-02   1.00000000000000E-02   0.00000000000000E+00   0.00000000000000E+00
      5.01404828811011E-14   1.15036892625972E-15   5.12908518073609E-14   1.12705326692545E-17   9.00000000000000E-02
      9.00000000000000E-02   0.00000000000000E+00   0.00000000000000E+00   0.00000000000000E+00   0.00000000000000E+00
      0.00000000000000E+00   2.28820363926902E-18
      2.10000000000000E-01
      0.00000000000000E+00   0.00000000000000E+00   0.00000000000000E+00   0.00000000000000E+00  -4.69665030962318E-14
     -4.33012224187008E-15  -5.12966253381018E-14  -1.04272169703643E-17   8.40000000000000E-02   8.40000000000000E-02
      0.00000000000000E+00   0.00000000000000E+00   0.00000000000000E+00   0.00000000000000E+00   0.00000000000000E+00
     -2.03894858750318E-18   1.00000000000000E-02   1.00000000000000E-02   0.00000000000000E+00   0.00000000000000E+00
      5.01545577620558E-14   1.14206757604609E-15   5.12966253381019E-14   1.12264317122770E-17   9.00000000000000E-02
      9.00000000000000E-02   0.00000000000000E+00   0.00000000000000E+00   0.00000000000000E+00   0.00000000000000E+00
      0.00000000000000E+00   1.23973384559050E-18
      2.20000000000000E-01
      0.00000000000000E+00   0.00000000000000E+00   0.00000000000000E+00   0.00000000000000E+00  -4.73395092429437E-14
     -4.04865703225057E-15  -5.13881662751943E-14  -1.04719233583200E-17   8.80000000000000E-02   8.80000000000000E-02
      0.00000000000000E+00   0.00000000000000E+00   0.00000000000000E+00   0.00000000000000E+00   0.00000000000000E+00
     -9.01636796539378E-19   1.00000000000000E-02   1.00000000000000E-02   0.00000000000000E+00   0.00000000000000E+00
      5.02543807490080E-14   1.13378552618634E-15   5.13881662751943E-14   1.11823028090003E-17   9.00000000000000E-02
      9.00000000000000E-02   0.00000000000000E+00   0.00000000000000E+00   0.00000000000000E+00   0.00000000000000E+00
      0.00000000000000E+00   1.91257345859081E-19
      2.30000000000000E-01
      0.00000000000000E+00   0.00000000000000E+00   0.00000000000000E+00   0.00000000000000E+00  -4.77136375062667E-14
     -3.84150669605666E-15  -5.15551442023234E-14  -1.05165892661246E-17   9.20000000000000E-02   9.20000000000000E-02
      0.00000000000000E+00   0.00000000000000E+00   0.00000000000000E+00   0.00000000000000E+00   0.00000000000000E+00
      2.35669036969255E-19   1.00000000000000E-02   1.00000000000000E-02   0.00000000000000E+00   0.00000000000000E+00
      5.04296213385694E-14   1.12552286375397E-15   5.15551442023234E-14   1.11381453328758E-17   9.00000000000000E-02
      9.00000000000000E-02   0.00000000000000E+00   0.00000000000000E+00   0.00000000000000E+00   0.00000000000000E+00
      0.00000000000000E+00  -8.57225103720479E-19
      2.40000000000000E-01
      0.00000000000000E+00   0.00000000000000E+00   0.00000000000000E+00   0.00000000000000E+00  -4.80888768022311E-14
     -3.70094235647571E-15  -5.17898191587068E-14  -1.05612155605944E-17   9.60000000000000E-02   9.60000000000000E-02
      0.00000000000000E+00   0.00000000000000E+00   0.00000000000000E+00   0.00000000000000E+00   0.00000000000000E+00
      1.37296966686584E-18   1.00000000000000E-02   1.00000000000000E-02   0.00000000000000E+00   0.00000000000000E+00
      5.06725392757608E-14   1.11727988294605E-15   5.17898191587068E-14   1.10939586445498E-17   9.00000000000000E-02
      9.00000000000000E-02   0.00000000000000E+00   0.00000000000000E+00   0.00000000000000E+00   0.00000000000000E+00
      0.00000000000000E+00  -1.90571275082124E-18
      2.50000000000000E-01
      0.00000000000000E+00   0.00000000000000E+00   0.00000000000000E+00   0.00000000000000E+00  -4.84652161039087E-14
     -3.62161618251334E-15  -5.20868322864220E-14  -1.06058030883946E-17   1.00000000000000E-01   1.00000000000000E-01
      0.00000000000000E+00   0.00000000000000E+00   0.00000000000000E+00   0.00000000000000E+00   0.00000000000000E+00
      2.51026584354646E-18   1.00000000000000E-02   1.00000000000000E-02   0.00000000000000E+00   0.00000000000000E+00
      5.09777753268357E-14   1.10905695958632E-15   5.20868322864220E-14   1.10497420913442E-17   9.00000000000000E-02
      9.00000000000000E-02   0.00000000000000E+00   0.00000000000000E+00   0.00000000000000E+00   0.00000000000000E+00
      0.00000000000000E+00  -2.95420484649598E-18
      2.60000000000000E-01
      0.00000000000000E+00   0.00000000000000E+00   0.00000000000000E+00   0.00000000000000E+00  -4.88426444162897E-14
     -3.60041260221129E-15  -5.24430570185010E-14  -1.06503526765202E-17   1.04000000000000E-01   1.04000000000000E-01
      0.00000000000000E+00   0.00000000000000E+00   0.00000000000000E+00   0.00000000000000E+00   0.00000000000000E+00
      3.64755831446754E-18   1.00000000000000E-02   1.00000000000000E-02   0.00000000000000E+00   0.00000000000000E+00
      5.13422029267580E-14   1.10085409174296E-15   5.24430570185010E-14   1.10054950067359E-17   9.00000000000000E-02
      9.00000000000000E-02   0.00000000000000E+00   0.00000000000000E+00   0.00000000000000E+00   0.00000000000000E+00
      0.00000000000000E+00  -4.00270064468323E-18
      2.70000000000000E-01
      0.00000000000000E+00   0.00000000000000E+00   0.00000000000000E+00   0.00000000000000E+00  -4.92211508167978E-14
     -3.63635930720379E-15  -5.28575101240016E-14  -1.06948651327650E-17   1.08000000000000E-01   1.08000000000000E-01
      0.00000000000000E+00   0.00000000000000E+00   0.00000000000000E+00   0.00000000000000E+00   0.00000000000000E+00
      4.78484782464908E-18   1.00000000000000E-02   1.00000000000000E-02   0.00000000000000E+00   0.00000000000000E+00
      5.17648383609631E-14   1.09267176303848E-15   5.28575101240016E-14   1.09612167098329E-17   9.00000000000000E-02
      9.00000000000000E-02   0.00000000000000E+00   0.00000000000000E+00   0.00000000000000E+00   0.00000000000000E+00
      0.00000000000000E+00  -5.05119940171702E-18
      2.80000000000000E-01
      0.00000000000000E+00   0.00000000000000E+00   0.00000000000000E+00   0.00000000000000E+00  -4.96007244183379E-14
     -3.73059335904797E-15  -5.33313177773859E-14  -1.07393412461803E-17   1.12000000000000E-01   1.12000000000000E-01
      0.00000000000000E+00   0.00000000000000E+00   0.00000000000000E+00   0.00000000000000E+00   0.00000000000000E+00
      5.92213511717479E-18   1.00000000000000E-02   1.00000000000000E-02   0.00000000000000E+00   0.00000000000000E+00
      5.22468076612011E-14   1.08451011618480E-15   5.33313177773859E-14   1.09169065048450E-17   9.00000000000000E-02
      9.00000000000000E-02   0.00000000000000E+00   0.00000000000000E+00   0.00000000000000E+00   0.00000000000000E+00
      0.00000000000000E+00  -6.09970037583945E-18
      2.90000000000000E-01
      0.00000000000000E+00   0.00000000000000E+00   0.00000000000000E+00   0.00000000000000E+00  -4.99813543877482E-14
     -3.88638438729646E-15  -5.38677387750447E-14  -1.07837817875234E-17   1.16000000000000E-01   1.16000000000000E-01
      0.00000000000000E+00   0.00000000000000E+00   0.00000000000000E+00   0.00000000000000E+00   0.00000000000000E+00
      7.05942093368942E-18   1.00000000000000E-02   1.00000000000000E-02   0.00000000000000E+00   0.00000000000000E+00
      5.27913694293741E-14   1.07636934567055E-15   5.38677387750447E-14   1.08725636805495E-17   9.00000000000000E-02
      9.00000000000000E-02   0.00000000000000E+00   0.00000000000000E+00   0.00000000000000E+00   0.00000000000000E+00
      0.00000000000000E+00  -7.14820282671550E-18
      3.00000000000000E-01
      0.00000000000000E+00   0.00000000000000E+00   0.00000000000000E+00   0.00000000000000E+00  -5.03630299727627E-14
     -4.10921316092299E-15  -5.44722431336857E-14  -1.08281875096952E-17   1.20000000000000E-01   1.20000000000000E-01
      0.00000000000000E+00   0.00000000000000E+00   0.00000000000000E+00   0.00000000000000E+00   0.00000000000000E+00
      8.19670601489455E-18   1.00000000000000E-02   1.00000000000000E-02   0.00000000000000E+00   0.00000000000000E+00
      5.34039933710789E-14   1.06824976260675E-15   5.44722431336857E-14   1.08281875097502E-17   9.00000000000000E-02
      9.00000000000000E-02   0.00000000000000E+00   0.00000000000000E+00   0.00000000000000E+00   0.00000000000000E+00
      0.00000000000000E+00  -8.19670601494960E-18
      3.10000000000000E-01
      0.00000000000000E+00   0.00000000000000E+00   0.00000000000000E+00   0.00000000000000E+00  -5.07457404457975E-14
     -4.40690610713708E-15  -5.51526465529346E-14  -1.08725591481673E-17   1.24000000000000E-01   1.24000000000000E-01
      0.00000000000000E+00   0.00000000000000E+00   0.00000000000000E+00   0.00000000000000E+00   0.00000000000000E+00
      9.33399110104310E-18   1.00000000000000E-02   1.00000000000000E-02   0.00000000000000E+00   0.00000000000000E+00
      5.40924950117950E-14   1.06015154113957E-15   5.51526465529346E-14   1.07837772487274E-17   9.00000000000000E-02
      9.00000000000000E-02   0.00000000000000E+00   0.00000000000000E+00   0.00000000000000E+00   0.00000000000000E+00
      0.00000000000000E+00  -9.24520920160316E-18
      3.20000000000000E-01
      0.00000000000000E+00   0.00000000000000E+00   0.00000000000000E+00   0.00000000000000E+00  -5.11294751618963E-14
     -4.78982776854065E-15  -5.59193029304370E-14  -1.09168974214005E-17   1.28000000000000E-01   1.28000000000000E-01
      0.00000000000000E+00   0.00000000000000E+00   0.00000000000000E+00   0.00000000000000E+00   0.00000000000000E+00
      1.04712769324337E-17   1.00000000000000E-02   1.00000000000000E-02   0.00000000000000E+00   0.00000000000000E+00
      5.48672280813217E-14   1.05207484911521E-15   5.59193029304369E-14   1.07393321366793E-17   9.00000000000000E-02
      9.00000000000000E-02   0.00000000000000E+00   0.00000000000000E+00   0.00000000000000E+00   0.00000000000000E+00
      0.00000000000000E+00  -1.02937116477124E-17
      3.30000000000000E-01
      0.00000000000000E+00   0.00000000000000E+00   0.00000000000000E+00   0.00000000000000E+00  -5.15142235365006E-14
     -5.27113285895065E-15  -5.67853563954512E-14  -1.09612030312521E-17   1.32000000000000E-01   1.32000000000000E-01
      0.00000000000000E+00   0.00000000000000E+00   0.00000000000000E+00   0.00000000000000E+00   0.00000000000000E+00
      1.16085642499052E-17   1.00000000000000E-02   1.00000000000000E-02   0.00000000000000E+00   0.00000000000000E+00
      5.57413363709170E-14   1.04402002453416E-15   5.67853563954512E-14   1.06948513951531E-17   9.00000000000000E-02
      9.00000000000000E-02   0.00000000000000E+00   0.00000000000000E+00   0.00000000000000E+00   0.00000000000000E+00
      0.00000000000000E+00  -1.13422126138062E-17
      3.40000000000000E-01
      0.00000000000000E+00   0.00000000000000E+00   0.00000000000000E+00   0.00000000000000E+00  -5.18999750319882E-14
     -5.86707998280899E-15  -5.77670550147972E-14  -1.10054766633742E-17   1.36000000000000E-01   1.36000000000000E-01
      0.00000000000000E+00   0.00000000000000E+00   0.00000000000000E+00   0.00000000000000E+00   0.00000000000000E+00
      1.27458537953325E-17   1.00000000000000E-02   1.00000000000000E-02   0.00000000000000E+00   0.00000000000000E+00
      5.67310678476122E-14   1.03598716718502E-15   5.77670550147972E-14   1.06503342274643E-17   9.00000000000000E-02
      9.00000000000000E-02   0.00000000000000E+00   0.00000000000000E+00   0.00000000000000E+00   0.00000000000000E+00
      0.00000000000000E+00  -1.23907113594226E-17
      3.50000000000000E-01
      0.00000000000000E+00   0.00000000000000E+00   0.00000000000000E+00   0.00000000000000E+00  -5.22867191878462E-14
     -6.59741176482116E-15  -5.88841309526674E-14  -1.10497189876028E-17   1.40000000000000E-01   1.40000000000000E-01
      0.00000000000000E+00   0.00000000000000E+00   0.00000000000000E+00   0.00000000000000E+00   0.00000000000000E+00
      1.38831463121240E-17   1.00000000000000E-02   1.00000000000000E-02   0.00000000000000E+00   0.00000000000000E+00
      5.78561544384892E-14   1.02797651417813E-15   5.88841309526674E-14   1.06057798181033E-17   9.00000000000000E-02
      9.00000000000000E-02   0.00000000000000E+00   0.00000000000000E+00   0.00000000000000E+00   0.00000000000000E+00
      0.00000000000000E+00  -1.34392071426245E-17
      3.60000000000000E-01
      0.00000000000000E+00   0.00000000000000E+00   0.00000000000000E+00   0.00000000000000E+00  -5.26744456107273E-14
     -7.48580406818011E-15  -6.01602496789074E-14  -1.10939306583376E-17   1.44000000000000E-01   1.44000000000000E-01
      0.00000000000000E+00   0.00000000000000E+00   0.00000000000000E+00   0.00000000000000E+00   0.00000000000000E+00
      1.50204425457219E-17   1.00000000000000E-02   1.00000000000000E-02   0.00000000000000E+00   0.00000000000000E+00
      5.91402614465896E-14   1.01998823231776E-15   6.01602496789074E-14   1.05611873321284E-17   9.00000000000000E-02
      9.00000000000000E-02   0.00000000000000E+00   0.00000000000000E+00   0.00000000000000E+00   0.00000000000000E+00
      0.00000000000000E+00  -1.44876992195126E-17
      3.70000000000000E-01
      0.00000000000000E+00   0.00000000000000E+00   0.00000000000000E+00   0.00000000000000E+00  -5.30631439650011E-14