DF-ISE text

Info {
  version   = 1.0
  type      = xyplot
  datasets  = [
    "time"
    "source OuterVoltage" "source InnerVoltage" "source QuasiFermiPotential" "source DisplacementCurrent" "source eCurrent"
    "source hCurrent" "source TotalCurrent" "source Charge" "topGate OuterVoltage" "topGate InnerVoltage"
    "topGate QuasiFermiPotential" "topGate DisplacementCurrent" "topGate eCurrent" "topGate hCurrent" "topGate TotalCurrent"
    "topGate Charge" "drain OuterVoltage" "drain InnerVoltage" "drain QuasiFermiPotential" "drain DisplacementCurrent"
    "drain eCurrent" "drain hCurrent" "drain TotalCurrent" "drain Charge" "bottomGate OuterVoltage"
    "bottomGate InnerVoltage" "bottomGate QuasiFermiPotential" "bottomGate DisplacementCurrent" "bottomGate eCurrent" "bottomGate hCurrent"
    "bottomGate TotalCurrent" "bottomGate Charge" ]
  functions = [
    Time
    OuterVoltage InnerVoltage QuasiFermiPotential DisplacementCurrent eCurrent
    hCurrent TotalCurrent Charge OuterVoltage InnerVoltage
    QuasiFermiPotential DisplacementCurrent eCurrent hCurrent TotalCurrent
    Charge OuterVoltage InnerVoltage QuasiFermiPotential DisplacementCurrent
    eCurrent hCurrent TotalCurrent Charge OuterVoltage
    InnerVoltage QuasiFermiPotential DisplacementCurrent eCurrent hCurrent
    TotalCurrent Charge ]
}

Data {
      1.00000000000000E-02
      0.00000000000000E+00   0.00000000000000E+00   0.00000000000000E+00   0.00000000000000E+00  -1.49311080662928E-13
     -3.31609921664086E-11  -3.33103032470715E-11  -1.05390181252180E-17   4.00000000000000E-03   4.00000000000000E-03
      0.00000000000000E+00   0.00000000000000E+00   0.00000000000000E+00   0.00000000000000E+00   0.00000000000000E+00
     -5.08642650959635E-17   2.40000000000000E-01   2.40000000000000E-01   0.00000000000000E+00   0.00000000000000E+00
      3.33035836852823E-11   6.71956178922116E-15   3.33103032470716E-11   1.60928650238603E-17   1.80000000000000E-01
      1.80000000000000E-01   0.00000000000000E+00   0.00000000000000E+00   0.00000000000000E+00   0.00000000000000E+00
      0.00000000000000E+00   4.53104181973212E-17
      2.00000000000000E-02
      0.00000000000000E+00   0.00000000000000E+00   0.00000000000000E+00   0.00000000000000E+00  -1.50482757836859E-13
     -3.04536600636529E-11  -3.06041428214898E-11  -1.05836249175124E-17   8.00000000000000E-03   8.00000000000000E-03
      0.00000000000000E+00   0.00000000000000E+00   0.00000000000000E+00   0.00000000000000E+00   0.00000000000000E+00
     -4.97276545358704E-17   2.40000000000000E-01   2.40000000000000E-01   0.00000000000000E+00   0.00000000000000E+00
      3.05974515437093E-11   6.69127778052003E-15   3.06041428214898E-11   1.60500391696582E-17   1.80000000000000E-01
      1.80000000000000E-01   0.00000000000000E+00   0.00000000000000E+00   0.00000000000000E+00   0.00000000000000E+00
      0.00000000000000E+00   4.42612402837246E-17
      3.00000000000000E-02
      0.00000000000000E+00   0.00000000000000E+00   0.00000000000000E+00   0.00000000000000E+00  -1.51657815482576E-13
     -2.79477479070462E-11  -2.80994057225288E-11  -1.06281933581529E-17   1.20000000000000E-02   1.20000000000000E-02
      0.00000000000000E+00   0.00000000000000E+00   0.00000000000000E+00   0.00000000000000E+00   0.00000000000000E+00
     -4.85910614399260E-17   2.40000000000000E-01   2.40000000000000E-01   0.00000000000000E+00   0.00000000000000E+00
      2.80927428308972E-11   6.66289163158241E-15   2.80994057225288E-11   1.60072098666305E-17   1.80000000000000E-01
      1.80000000000000E-01   0.00000000000000E+00   0.00000000000000E+00   0.00000000000000E+00   0.00000000000000E+00
      0.00000000000000E+00   4.32120449314484E-17
      4.00000000000000E-02
      0.00000000000000E+00   0.00000000000000E+00   0.00000000000000E+00   0.00000000000000E+00  -1.52836223252722E-13
     -2.56301173856219E-11  -2.57829536088746E-11  -1.06727242647345E-17   1.60000000000000E-02   1.60000000000000E-02
      0.00000000000000E+00   0.00000000000000E+00   0.00000000000000E+00   0.00000000000000E+00   0.00000000000000E+00
     -4.74544853579586E-17   2.40000000000000E-01   2.40000000000000E-01   0.00000000000000E+00   0.00000000000000E+00
      2.57763191960201E-11   6.63441285447274E-15   2.57829536088746E-11   1.59643770342277E-17   1.80000000000000E-01
      1.80000000000000E-01   0.00000000000000E+00   0.00000000000000E+00   0.00000000000000E+00   0.00000000000000E+00
      0.00000000000000E+00   4.21628325884654E-17
      5.00000000000000E-02
      0.00000000000000E+00   0.00000000000000E+00   0.00000000000000E+00   0.00000000000000E+00  -1.54017950588718E-13
     -2.34883457522260E-11  -2.36423637028148E-11  -1.07172184358686E-17   2.00000000000000E-02   2.00000000000000E-02
      0.00000000000000E+00   0.00000000000000E+00   0.00000000000000E+00   0.00000000000000E+00   0.00000000000000E+00
     -4.63179258497030E-17   2.40000000000000E-01   2.40000000000000E-01   0.00000000000000E+00   0.00000000000000E+00
      2.36357578522492E-11   6.60585056554551E-15   2.36423637028148E-11   1.59215405925427E-17   1.80000000000000E-01
      1.80000000000000E-01   0.00000000000000E+00   0.00000000000000E+00   0.00000000000000E+00   0.00000000000000E+00
      0.00000000000000E+00   4.11136036930290E-17
      6.00000000000000E-02
      0.00000000000000E+00   0.00000000000000E+00   0.00000000000000E+00   0.00000000000000E+00  -1.55202966768866E-13
     -2.15106962060351E-11  -2.16658991728040E-11  -1.07616766516372E-17   2.40000000000000E-02   2.40000000000000E-02
      0.00000000000000E+00   0.00000000000000E+00   0.00000000000000E+00   0.00000000000000E+00   0.00000000000000E+00
     -4.51813824844879E-17   2.40000000000000E-01   2.40000000000000E-01   0.00000000000000E+00   0.00000000000000E+00
      2.16593219599819E-11   6.57721282211902E-15   2.16658991728040E-11   1.58787004621549E-17   1.80000000000000E-01
      1.80000000000000E-01   0.00000000000000E+00   0.00000000000000E+00   0.00000000000000E+00   0.00000000000000E+00
      0.00000000000000E+00   4.00643586739701E-17
      7.00000000000000E-02
      0.00000000000000E+00   0.00000000000000E+00   0.00000000000000E+00   0.00000000000000E+00  -1.56391240951812E-13
     -1.96860889969305E-11  -1.98424802378823E-11  -1.08060996740367E-17   2.80000000000000E-02   2.80000000000000E-02
      0.00000000000000E+00   0.00000000000000E+00   0.00000000000000E+00   0.00000000000000E+00   0.00000000000000E+00
     -4.40448548409331E-17   2.40000000000000E-01   2.40000000000000E-01   0.00000000000000E+00   0.00000000000000E+00
      1.98359317305066E-11   6.54850737571414E-15   1.98424802378823E-11   1.58358565639848E-17   1.80000000000000E-01
      1.80000000000000E-01   0.00000000000000E+00   0.00000000000000E+00   0.00000000000000E+00   0.00000000000000E+00
      0.00000000000000E+00   3.90150979509850E-17
      8.00000000000000E-02
      0.00000000000000E+00   0.00000000000000E+00   0.00000000000000E+00   0.00000000000000E+00  -1.57582742215758E-13
     -1.80040732526902E-11  -1.81616559949059E-11  -1.08504882474120E-17   3.20000000000000E-02   3.20000000000000E-02
      0.00000000000000E+00   0.00000000000000E+00   0.00000000000000E+00   0.00000000000000E+00   0.00000000000000E+00
     -4.29083425066586E-17   2.40000000000000E-01   2.40000000000000E-01   0.00000000000000E+00   0.00000000000000E+00
      1.81551362538419E-11   6.51974106397728E-15   1.81616559949059E-11   1.57930088191571E-17   1.80000000000000E-01
      1.80000000000000E-01   0.00000000000000E+00   0.00000000000000E+00   0.00000000000000E+00   0.00000000000000E+00
      0.00000000000000E+00   3.79658219349135E-17
      9.00000000000000E-02
      0.00000000000000E+00   0.00000000000000E+00   0.00000000000000E+00   0.00000000000000E+00  -1.58777439593881E-13
     -1.64547995346223E-11  -1.66135769742162E-11  -1.08948430988800E-17   3.60000000000000E-02   3.60000000000000E-02
      0.00000000000000E+00   0.00000000000000E+00   0.00000000000000E+00   0.00000000000000E+00   0.00000000000000E+00
     -4.17718450780021E-17   2.40000000000000E-01   2.40000000000000E-01   0.00000000000000E+00   0.00000000000000E+00
      1.66070860538350E-11   6.49092038113649E-15   1.66135769742162E-11   1.57501571488729E-17   1.80000000000000E-01
      1.80000000000000E-01   0.00000000000000E+00   0.00000000000000E+00   0.00000000000000E+00   0.00000000000000E+00
      0.00000000000000E+00   3.69165310280092E-17
      1.00000000000000E-01
      0.00000000000000E+00   0.00000000000000E+00   0.00000000000000E+00   0.00000000000000E+00  -1.59975302106286E-13
     -1.50289931221790E-11  -1.51889684242853E-11  -1.09391649387434E-17   4.00000000000000E-02   4.00000000000000E-02
      0.00000000000000E+00   0.00000000000000E+00   0.00000000000000E+00   0.00000000000000E+00   0.00000000000000E+00
     -4.06353621597462E-17   2.40000000000000E-01   2.40000000000000E-01   0.00000000000000E+00   0.00000000000000E+00
      1.51825063729360E-11   6.46205134934740E-15   1.51889684242853E-11   1.57073014742887E-17   1.80000000000000E-01
      1.80000000000000E-01   0.00000000000000E+00   0.00000000000000E+00   0.00000000000000E+00   0.00000000000000E+00
      0.00000000000000E+00   3.58672256242009E-17
      1.10000000000000E-01
      0.00000000000000E+00   0.00000000000000E+00   0.00000000000000E+00   0.00000000000000E+00  -1.61176298788823E-13
     -1.37179280288947E-11  -1.38791043276836E-11  -1.09834544608943E-17   4.40000000000000E-02   4.40000000000000E-02
      0.00000000000000E+00   0.00000000000000E+00   0.00000000000000E+00   0.00000000000000E+00   0.00000000000000E+00
     -3.94988933648547E-17   2.40000000000000E-01   2.40000000000000E-01   0.00000000000000E+00   0.00000000000000E+00
      1.38726711883724E-11   6.43313931114779E-15   1.38791043276836E-11   1.56644417164026E-17   1.80000000000000E-01
      1.80000000000000E-01   0.00000000000000E+00   0.00000000000000E+00   0.00000000000000E+00   0.00000000000000E+00
      0.00000000000000E+00   3.48179061093464E-17
      1.20000000000000E-01
      0.00000000000000E+00   0.00000000000000E+00   0.00000000000000E+00   0.00000000000000E+00  -1.62380398719101E-13
     -1.25134017514780E-11  -1.26757821501971E-11  -1.10277123432096E-17   4.80000000000000E-02   4.80000000000000E-02
      0.00000000000000E+00   0.00000000000000E+00   0.00000000000000E+00   0.00000000000000E+00   0.00000000000000E+00
     -3.83624383142165E-17   2.40000000000000E-01   2.40000000000000E-01   0.00000000000000E+00   0.00000000000000E+00
      1.26693779607430E-11   6.40418945413719E-15   1.26757821501971E-11   1.56215777959466E-17   1.80000000000000E-01
      1.80000000000000E-01   0.00000000000000E+00   0.00000000000000E+00   0.00000000000000E+00   0.00000000000000E+00
      0.00000000000000E+00   3.37685728614794E-17
      1.30000000000000E-01
      0.00000000000000E+00   0.00000000000000E+00   0.00000000000000E+00   0.00000000000000E+00  -1.63587571039911E-13
     -1.14077107506680E-11  -1.15712983217079E-11  -1.10719392479356E-17   5.20000000000000E-02   5.20000000000000E-02
      0.00000000000000E+00   0.00000000000000E+00   0.00000000000000E+00   0.00000000000000E+00   0.00000000000000E+00
     -3.72259966363981E-17   2.40000000000000E-01   2.40000000000000E-01   0.00000000000000E+00   0.00000000000000E+00
      1.15649231153301E-11   6.37520637775486E-15   1.15712983217079E-11   1.55787096332854E-17   1.80000000000000E-01
      1.80000000000000E-01   0.00000000000000E+00   0.00000000000000E+00   0.00000000000000E+00   0.00000000000000E+00
      0.00000000000000E+00   3.27192262510482E-17
      1.40000000000000E-01
      0.00000000000000E+00   0.00000000000000E+00   0.00000000000000E+00   0.00000000000000E+00  -1.64797784980353E-13
     -1.03936266651693E-11  -1.05584244501496E-11  -1.11161358220645E-17   5.60000000000000E-02   5.60000000000000E-02
      0.00000000000000E+00   0.00000000000000E+00   0.00000000000000E+00   0.00000000000000E+00   0.00000000000000E+00
     -3.60895679674031E-17   2.40000000000000E-01   2.40000000000000E-01   0.00000000000000E+00   0.00000000000000E+00
      1.05520782557014E-11   6.34619444822600E-15   1.05584244501496E-11   1.55358371483191E-17   1.80000000000000E-01
      1.80000000000000E-01   0.00000000000000E+00   0.00000000000000E+00   0.00000000000000E+00   0.00000000000000E+00
      0.00000000000000E+00   3.16698666411485E-17
      1.50000000000000E-01
      0.00000000000000E+00   0.00000000000000E+00   0.00000000000000E+00   0.00000000000000E+00  -1.66011009874848E-13
     -9.46437325623726E-12  -9.63038426611211E-12  -1.11603026977017E-17   6.00000000000000E-02   6.00000000000000E-02
      0.00000000000000E+00   0.00000000000000E+00   0.00000000000000E+00   0.00000000000000E+00   0.00000000000000E+00
     -3.49531519504393E-17   2.40000000000000E-01   2.40000000000000E-01   0.00000000000000E+00   0.00000000000000E+00
      9.62406710843627E-12   6.31715767585286E-15   9.63038426611212E-12   1.54929602603919E-17   1.80000000000000E-01
      1.80000000000000E-01   0.00000000000000E+00   0.00000000000000E+00   0.00000000000000E+00   0.00000000000000E+00
      0.00000000000000E+00   3.06204943877491E-17
      1.60000000000000E-01
      0.00000000000000E+00   0.00000000000000E+00   0.00000000000000E+00   0.00000000000000E+00  -1.67227215180258E-13
     -8.61360408163102E-12  -8.78083129681128E-12  -1.12044404924240E-17   6.40000000000000E-02   6.40000000000000E-02
      0.00000000000000E+00   0.00000000000000E+00   0.00000000000000E+00   0.00000000000000E+00   0.00000000000000E+00
     -3.38167482356922E-17   2.40000000000000E-01   2.40000000000000E-01   0.00000000000000E+00   0.00000000000000E+00
      8.77454319707186E-12   6.28809973943786E-15   8.78083129681129E-12   1.54500788882042E-17   1.80000000000000E-01
      1.80000000000000E-01   0.00000000000000E+00   0.00000000000000E+00   0.00000000000000E+00   0.00000000000000E+00
      0.00000000000000E+00   2.95711098399121E-17
      1.70000000000000E-01
      0.00000000000000E+00   0.00000000000000E+00   0.00000000000000E+00   0.00000000000000E+00  -1.68446370491274E-13
     -7.83538089617895E-12  -8.00382726667022E-12  -1.12485498096302E-17   6.80000000000000E-02   6.80000000000000E-02
      0.00000000000000E+00   0.00000000000000E+00   0.00000000000000E+00   0.00000000000000E+00   0.00000000000000E+00
     -3.26803564801053E-17   2.40000000000000E-01   2.40000000000000E-01   0.00000000000000E+00   0.00000000000000E+00
      7.99756824262526E-12   6.25902404496335E-15   8.00382726667022E-12   1.54071929497294E-17   1.80000000000000E-01
      1.80000000000000E-01   0.00000000000000E+00   0.00000000000000E+00   0.00000000000000E+00   0.00000000000000E+00
      0.00000000000000E+00   2.85217133400061E-17
      1.80000000000000E-01
      0.00000000000000E+00   0.00000000000000E+00   0.00000000000000E+00   0.00000000000000E+00  -1.69668445554263E-13
     -7.12415277557201E-12  -7.29382122112628E-12  -1.12926312388820E-17   7.20000000000000E-02   7.20000000000000E-02
      0.00000000000000E+00   0.00000000000000E+00   0.00000000000000E+00   0.00000000000000E+00   0.00000000000000E+00
     -3.15439763471661E-17   2.40000000000000E-01   2.40000000000000E-01   0.00000000000000E+00   0.00000000000000E+00
      7.28759128731206E-12   6.22993381422030E-15   7.29382122112628E-12   1.53643023621332E-17   1.80000000000000E-01
      1.80000000000000E-01   0.00000000000000E+00   0.00000000000000E+00   0.00000000000000E+00   0.00000000000000E+00
      0.00000000000000E+00   2.74723052239149E-17
      1.90000000000000E-01
      0.00000000000000E+00   0.00000000000000E+00   0.00000000000000E+00   0.00000000000000E+00  -1.70893410279653E-13
     -6.47473595902278E-12  -6.64562936930243E-12  -1.13366853562381E-17   7.60000000000000E-02   7.60000000000000E-02
      0.00000000000000E+00   0.00000000000000E+00   0.00000000000000E+00   0.00000000000000E+00   0.00000000000000E+00
     -3.04076075066991E-17   2.40000000000000E-01   2.40000000000000E-01   0.00000000000000E+00   0.00000000000000E+00
      6.63942853735078E-12   6.20083195164944E-15   6.64562936930243E-12   1.53214070416972E-17   1.80000000000000E-01
      1.80000000000000E-01   0.00000000000000E+00   0.00000000000000E+00   0.00000000000000E+00   0.00000000000000E+00
      0.00000000000000E+00   2.64228858212401E-17
      2.00000000000000E-01
      0.00000000000000E+00   0.00000000000000E+00   0.00000000000000E+00   0.00000000000000E+00  -1.72121234753094E-13
     -5.88229440647185E-12  -6.05441564122495E-12  -1.13807127245795E-17   8.00000000000000E-02   8.00000000000000E-02
      0.00000000000000E+00   0.00000000000000E+00   0.00000000000000E+00   0.00000000000000E+00   0.00000000000000E+00
     -2.92712496346631E-17   2.40000000000000E-01   2.40000000000000E-01   0.00000000000000E+00   0.00000000000000E+00
      6.04824392002712E-12   6.17172119783326E-15   6.05441564122495E-12   1.52785069037445E-17   1.80000000000000E-01
      1.80000000000000E-01   0.00000000000000E+00   0.00000000000000E+00   0.00000000000000E+00   0.00000000000000E+00
      0.00000000000000E+00   2.53734554554981E-17
      2.10000000000000E-01
      0.00000000000000E+00   0.00000000000000E+00   0.00000000000000E+00   0.00000000000000E+00  -1.73351889245406E-13
     -5.34232106434310E-12  -5.51567295358850E-12  -1.14247138939269E-17   8.40000000000000E-02   8.40000000000000E-02
      0.00000000000000E+00   0.00000000000000E+00   0.00000000000000E+00   0.00000000000000E+00   0.00000000000000E+00
     -2.81349024129545E-17   2.40000000000000E-01   2.40000000000000E-01   0.00000000000000E+00   0.00000000000000E+00
      5.50953034948374E-12   6.14260410476376E-15   5.51567295358850E-12   1.52356018625683E-17   1.80000000000000E-01
      1.80000000000000E-01   0.00000000000000E+00   0.00000000000000E+00   0.00000000000000E+00   0.00000000000000E+00
      0.00000000000000E+00   2.43240144443131E-17
      2.20000000000000E-01
      0.00000000000000E+00   0.00000000000000E+00   0.00000000000000E+00   0.00000000000000E+00  -1.74585344221497E-13
     -4.85061983381879E-12  -5.02520517804029E-12  -1.14686894017510E-17   8.80000000000000E-02   8.80000000000000E-02
      0.00000000000000E+00   0.00000000000000E+00   0.00000000000000E+00   0.00000000000000E+00   0.00000000000000E+00
     -2.69985655292161E-17   2.40000000000000E-01   2.40000000000000E-01   0.00000000000000E+00   0.00000000000000E+00
      5.01909169501819E-12   6.11348302210065E-15   5.02520517804029E-12   1.51926918313622E-17   1.80000000000000E-01
      1.80000000000000E-01   0.00000000000000E+00   0.00000000000000E+00   0.00000000000000E+00   0.00000000000000E+00
      0.00000000000000E+00   2.32745630996049E-17
      2.30000000000000E-01
      0.00000000000000E+00   0.00000000000000E+00   0.00000000000000E+00   0.00000000000000E+00  -1.75821570348304E-13
     -4.40328823478833E-12  -4.57910980513664E-12  -1.15126397732747E-17   9.20000000000000E-02   9.20000000000000E-02
      0.00000000000000E+00   0.00000000000000E+00   0.00000000000000E+00   0.00000000000000E+00   0.00000000000000E+00
     -2.58622386766502E-17   2.40000000000000E-01   2.40000000000000E-01   0.00000000000000E+00   0.00000000000000E+00
      4.57302544500457E-12   6.08436013206842E-15   4.57910980513664E-12   1.51497767221537E-17   1.80000000000000E-01
      1.80000000000000E-01   0.00000000000000E+00   0.00000000000000E+00   0.00000000000000E+00   0.00000000000000E+00
      0.00000000000000E+00   2.22251017277712E-17
      2.40000000000000E-01
      0.00000000000000E+00   0.00000000000000E+00   0.00000000000000E+00   0.00000000000000E+00  -1.77060538501871E-13
     -3.99670075791079E-12  -4.17376129641266E-12  -1.15565655217688E-17   9.60000000000000E-02   9.60000000000000E-02
      0.00000000000000E+00   0.00000000000000E+00   0.00000000000000E+00   0.00000000000000E+00   0.00000000000000E+00
     -2.47259215538366E-17   2.40000000000000E-01   2.40000000000000E-01   0.00000000000000E+00   0.00000000000000E+00
      4.16770605891641E-12   6.05523749625358E-15   4.17376129641266E-12   1.51068564457379E-17   1.80000000000000E-01
      1.80000000000000E-01   0.00000000000000E+00   0.00000000000000E+00   0.00000000000000E+00   0.00000000000000E+00
      0.00000000000000E+00   2.11756306298675E-17
      2.50000000000000E-01
      0.00000000000000E+00   0.00000000000000E+00   0.00000000000000E+00   0.00000000000000E+00  -1.78302219773637E-13
     -3.62749289656280E-12  -3.80579511633644E-12  -1.16004671488393E-17   1.00000000000000E-01   1.00000000000000E-01
      0.00000000000000E+00   0.00000000000000E+00   0.00000000000000E+00   0.00000000000000E+00   0.00000000000000E+00
     -2.35896138645552E-17   2.40000000000000E-01   2.40000000000000E-01   0.00000000000000E+00   0.00000000000000E+00
      3.79976899931730E-12   6.02611701913918E-15   3.80579511633644E-12   1.50639309116139E-17   1.80000000000000E-01
      1.80000000000000E-01   0.00000000000000E+00   0.00000000000000E+00   0.00000000000000E+00   0.00000000000000E+00
      0.00000000000000E+00   2.01261501017806E-17
      2.60000000000000E-01
      0.00000000000000E+00   0.00000000000000E+00   0.00000000000000E+00   0.00000000000000E+00  -1.79546585475984E-13
     -3.29254585008564E-12  -3.47209243556162E-12  -1.16443451447093E-17   1.04000000000000E-01   1.04000000000000E-01
      0.00000000000000E+00   0.00000000000000E+00   0.00000000000000E+00   0.00000000000000E+00   0.00000000000000E+00
     -2.24533153176127E-17   2.40000000000000E-01   2.40000000000000E-01   0.00000000000000E+00   0.00000000000000E+00
      3.46609543510894E-12   5.99700045268354E-15   3.47209243556162E-12   1.50210000279224E-17   1.80000000000000E-01
      1.80000000000000E-01   0.00000000000000E+00   0.00000000000000E+00   0.00000000000000E+00   0.00000000000000E+00
      0.00000000000000E+00   1.90766604343996E-17
      2.70000000000000E-01
      0.00000000000000E+00   0.00000000000000E+00   0.00000000000000E+00   0.00000000000000E+00  -1.80793607147173E-13
     -2.98897188914022E-12  -3.16976549628739E-12  -1.16881999884925E-17   1.08000000000000E-01   1.08000000000000E-01
      0.00000000000000E+00   0.00000000000000E+00   0.00000000000000E+00   0.00000000000000E+00   0.00000000000000E+00
     -2.13170256266737E-17   2.40000000000000E-01   2.40000000000000E-01   0.00000000000000E+00   0.00000000000000E+00
      3.16379760678410E-12   5.96788950329543E-15   3.16976549628739E-12   1.49780637013838E-17   1.80000000000000E-01
      1.80000000000000E-01   0.00000000000000E+00   0.00000000000000E+00   0.00000000000000E+00   0.00000000000000E+00
      0.00000000000000E+00   1.80271619137824E-17
      2.80000000000000E-01
      0.00000000000000E+00   0.00000000000000E+00   0.00000000000000E+00   0.00000000000000E+00  -1.82043256555626E-13
     -2.71410037309894E-12  -2.89614362965457E-12  -1.17320321484611E-17   1.12000000000000E-01   1.12000000000000E-01
      0.00000000000000E+00   0.00000000000000E+00   0.00000000000000E+00   0.00000000000000E+00   0.00000000000000E+00
     -2.01807445100954E-17   2.40000000000000E-01   2.40000000000000E-01   0.00000000000000E+00   0.00000000000000E+00
      2.89020484393090E-12   5.93878572366407E-15   2.89614362965456E-12   1.49351218372379E-17   1.80000000000000E-01
      1.80000000000000E-01   0.00000000000000E+00   0.00000000000000E+00   0.00000000000000E+00   0.00000000000000E+00
      0.00000000000000E+00   1.69776548213186E-17
      2.90000000000000E-01
      0.00000000000000E+00   0.00000000000000E+00   0.00000000000000E+00   0.00000000000000E+00  -1.83295505703700E-13
     -2.46546440963358E-12  -2.64875991533728E-12  -1.17758420823067E-17   1.16000000000000E-01   1.16000000000000E-01
      0.00000000000000E+00   0.00000000000000E+00   0.00000000000000E+00   0.00000000000000E+00   0.00000000000000E+00
     -1.90444716907661E-17   2.40000000000000E-01   2.40000000000000E-01   0.00000000000000E+00   0.00000000000000E+00
      2.64285022477528E-12   5.90969056199502E-15   2.64875991533728E-12   1.48921743391844E-17   1.80000000000000E-01
      1.80000000000000E-01   0.00000000000000E+00   0.00000000000000E+00   0.00000000000000E+00   0.00000000000000E+00
      0.00000000000000E+00   1.59281394338885E-17
      3.00000000000000E-01
      0.00000000000000E+00   0.00000000000000E+00   0.00000000000000E+00   0.00000000000000E+00  -1.84550326830976E-13
     -2.24078814569760E-12  -2.42533847252858E-12  -1.18196302373951E-17   1.20000000000000E-01   1.20000000000000E-01
      0.00000000000000E+00   0.00000000000000E+00   0.00000000000000E+00   0.00000000000000E+00   0.00000000000000E+00
     -1.79082068959479E-17   2.40000000000000E-01   2.40000000000000E-01   0.00000000000000E+00   0.00000000000000E+00
      2.41945786713512E-12   5.88060539346083E-15   2.42533847252858E-12   1.48492211093236E-17   1.80000000000000E-01
      1.80000000000000E-01   0.00000000000000E+00   0.00000000000000E+00   0.00000000000000E+00   0.00000000000000E+00
      0.00000000000000E+00   1.48786160240194E-17
      3.10000000000000E-01
      0.00000000000000E+00   0.00000000000000E+00   0.00000000000000E+00   0.00000000000000E+00  -1.85807692417064E-13
     -2.03797467888395E-12  -2.22378237130101E-12  -1.18633970510146E-17   1.24000000000000E-01   1.24000000000000E-01
      0.00000000000000E+00   0.00000000000000E+00   0.00000000000000E+00   0.00000000000000E+00   0.00000000000000E+00
     -1.67719498571215E-17   2.40000000000000E-01   2.40000000000000E-01   0.00000000000000E+00   0.00000000000000E+00
      2.21793083979505E-12   5.85153150595885E-15   2.22378237130101E-12   1.48062620480979E-17   1.80000000000000E-01
      1.80000000000000E-01   0.00000000000000E+00   0.00000000000000E+00   0.00000000000000E+00   0.00000000000000E+00
      0.00000000000000E+00   1.38290848600382E-17
      3.20000000000000E-01
      0.00000000000000E+00   0.00000000000000E+00   0.00000000000000E+00   0.00000000000000E+00  -1.87067575184027E-13
     -1.85509457794033E-12  -2.04216215312436E-12  -1.19071429506182E-17   1.28000000000000E-01   1.28000000000000E-01
      0.00000000000000E+00   0.00000000000000E+00   0.00000000000000E+00   0.00000000000000E+00   0.00000000000000E+00
     -1.56357003098359E-17   2.40000000000000E-01   2.40000000000000E-01   0.00000000000000E+00   0.00000000000000E+00
      2.03633968299686E-12   5.82247012749583E-15   2.04216215312436E-12   1.47632970542337E-17   1.80000000000000E-01
      1.80000000000000E-01   0.00000000000000E+00   0.00000000000000E+00   0.00000000000000E+00   0.00000000000000E+00
      0.00000000000000E+00   1.27795462062204E-17
      3.30000000000000E-01
      0.00000000000000E+00   0.00000000000000E+00   0.00000000000000E+00   0.00000000000000E+00  -1.88329948098416E-13
     -1.69037500078002E-12  -1.87870494887843E-12  -1.19508683540602E-17   1.32000000000000E-01   1.32000000000000E-01
      0.00000000000000E+00   0.00000000000000E+00   0.00000000000000E+00   0.00000000000000E+00   0.00000000000000E+00
     -1.44994579935603E-17   2.40000000000000E-01   2.40000000000000E-01   0.00000000000000E+00   0.00000000000000E+00
      1.87291152647994E-12   5.79342239849544E-15   1.87870494887843E-12   1.47203260246836E-17   1.80000000000000E-01
      1.80000000000000E-01   0.00000000000000E+00   0.00000000000000E+00   0.00000000000000E+00   0.00000000000000E+00
      0.00000000000000E+00   1.17300003229369E-17
      3.40000000000000E-01
      0.00000000000000E+00   0.00000000000000E+00   0.00000000000000E+00   0.00000000000000E+00  -1.89594784372958E-13
     -1.54218939832664E-12  -1.73178418269960E-12  -1.19945736698268E-17   1.36000000000000E-01   1.36000000000000E-01
      0.00000000000000E+00   0.00000000000000E+00   0.00000000000000E+00   0.00000000000000E+00   0.00000000000000E+00
     -1.33632226515388E-17   2.40000000000000E-01   2.40000000000000E-01   0.00000000000000E+00   0.00000000000000E+00
      1.72601979330120E-12   5.76438939840587E-15   1.73178418269960E-12   1.46773488545680E-17   1.80000000000000E-01
      1.80000000000000E-01   0.00000000000000E+00   0.00000000000000E+00   0.00000000000000E+00   0.00000000000000E+00
      0.00000000000000E+00   1.06804474667977E-17
      3.50000000000000E-01
      0.00000000000000E+00   0.00000000000000E+00   0.00000000000000E+00   0.00000000000000E+00  -1.90862057467958E-13
     -1.40904779220420E-12  -1.59990984967216E-12  -1.20382592972610E-17   1.40000000000000E-01   1.40000000000000E-01
      0.00000000000000E+00   0.00000000000000E+00   0.00000000000000E+00   0.00000000000000E+00   0.00000000000000E+00
     -1.22269940306489E-17   2.40000000000000E-01   2.40000000000000E-01   0.00000000000000E+00   0.00000000000000E+00
      1.59417447751541E-12   5.73537215674433E-15   1.59990984967216E-12   1.46343654371179E-17   1.80000000000000E-01
      1.80000000000000E-01   0.00000000000000E+00   0.00000000000000E+00   0.00000000000000E+00   0.00000000000000E+00
      0.00000000000000E+00   9.63088789079211E-18
      3.60000000000000E-01
      0.00000000000000E+00   0.00000000000000E+00   0.00000000000000E+00   0.00000000000000E+00  -1.92131741092382E-13
     -1.28958761426520E-12  -1.48171935535758E-12  -1.20819256267819E-17   1.44000000000000E-01   1.44000000000000E-01
      0.00000000000000E+00   0.00000000000000E+00   0.00000000000000E+00   0.00000000000000E+00   0.00000000000000E+00
     -1.10907718812621E-17   2.40000000000000E-01   2.40000000000000E-01   0.00000000000000E+00   0.00000000000000E+00
      1.47601298370675E-12   5.70637165082793E-15   1.48171935535758E-12   1.45913756636164E-17   1.80000000000000E-01
      1.80000000000000E-01   0.00000000000000E+00   0.00000000000000E+00   0.00000000000000E+00   0.00000000000000E+00
      0.00000000000000E+00   8.58132184442759E-18
      3.70000000000000E-01
      0.00000000000000E+00   0.00000000000000E+00   0.00000000000000E+00   0.00000000000000E+00  -1.93403809204708E-13