DF-ISE text

Info {
  version   = 1.0
  type      = xyplot
  datasets  = [
    "time"
    "source OuterVoltage" "source InnerVoltage" "source QuasiFermiPotential" "source DisplacementCurrent" "source eCurrent"
    "source hCurrent" "source TotalCurrent" "source Charge" "topGate OuterVoltage" "topGate InnerVoltage"
    "topGate QuasiFermiPotential" "topGate DisplacementCurrent" "topGate eCurrent" "topGate hCurrent" "topGate TotalCurrent"
    "topGate Charge" "drain OuterVoltage" "drain InnerVoltage" "drain QuasiFermiPotential" "drain DisplacementCurrent"
    "drain eCurrent" "drain hCurrent" "drain TotalCurrent" "drain Charge" "bottomGate OuterVoltage"
    "bottomGate InnerVoltage" "bottomGate QuasiFermiPotential" "bottomGate DisplacementCurrent" "bottomGate eCurrent" "bottomGate hCurrent"
    "bottomGate TotalCurrent" "bottomGate Charge" ]
  functions = [
    Time
    OuterVoltage InnerVoltage QuasiFermiPotential DisplacementCurrent eCurrent
    hCurrent TotalCurrent Charge OuterVoltage InnerVoltage
    QuasiFermiPotential DisplacementCurrent eCurrent hCurrent TotalCurrent
    Charge OuterVoltage InnerVoltage QuasiFermiPotential DisplacementCurrent
    eCurrent hCurrent TotalCurrent Charge OuterVoltage
    InnerVoltage QuasiFermiPotential DisplacementCurrent eCurrent hCurrent
    TotalCurrent Charge ]
}

Data {
      1.00000000000000E-02
      0.00000000000000E+00   0.00000000000000E+00   0.00000000000000E+00   0.00000000000000E+00  -1.32190219223905E-13
     -3.56838743860424E-10  -3.56970934079648E-10  -9.86476323832006E-18   4.00000000000000E-03   4.00000000000000E-03
      0.00000000000000E+00   0.00000000000000E+00   0.00000000000000E+00   0.00000000000000E+00   0.00000000000000E+00
     -3.66233311134773E-17   3.80000000000000E-01   3.80000000000000E-01   0.00000000000000E+00   0.00000000000000E+00
      3.56976809826553E-10  -5.87574690517077E-15   3.56970934079648E-10   1.97235619888844E-17   1.20000000000000E-01
      1.20000000000000E-01   0.00000000000000E+00   0.00000000000000E+00   0.00000000000000E+00   0.00000000000000E+00
      0.00000000000000E+00   2.67645323629130E-17
      2.00000000000000E-02
      0.00000000000000E+00   0.00000000000000E+00   0.00000000000000E+00   0.00000000000000E+00  -1.33306363841981E-13
     -3.39243128970090E-10  -3.39376435333932E-10  -9.91005767571617E-18   8.00000000000000E-03   8.00000000000000E-03
      0.00000000000000E+00   0.00000000000000E+00   0.00000000000000E+00   0.00000000000000E+00   0.00000000000000E+00
     -3.54864642298742E-17   3.80000000000000E-01   3.80000000000000E-01   0.00000000000000E+00   0.00000000000000E+00
      3.39381332728942E-10  -4.89739501023109E-15   3.39376435333932E-10   1.96809114624286E-17   1.20000000000000E-01
      1.20000000000000E-01   0.00000000000000E+00   0.00000000000000E+00   0.00000000000000E+00   0.00000000000000E+00
      0.00000000000000E+00   2.57156104431618E-17
      3.00000000000000E-02
      0.00000000000000E+00   0.00000000000000E+00   0.00000000000000E+00   0.00000000000000E+00  -1.34426442007657E-13
     -3.22525778554310E-10  -3.22660204996318E-10  -9.95529888433928E-18   1.20000000000000E-02   1.20000000000000E-02
      0.00000000000000E+00   0.00000000000000E+00   0.00000000000000E+00   0.00000000000000E+00   0.00000000000000E+00
     -3.43496238140888E-17   3.80000000000000E-01   3.80000000000000E-01   0.00000000000000E+00   0.00000000000000E+00
      3.22664186728887E-10  -3.98173256948384E-15   3.22660204996318E-10   1.96382605858439E-17   1.20000000000000E-01
      1.20000000000000E-01   0.00000000000000E+00   0.00000000000000E+00   0.00000000000000E+00   0.00000000000000E+00
      0.00000000000000E+00   2.46666621125842E-17
      4.00000000000000E-02
      0.00000000000000E+00   0.00000000000000E+00   0.00000000000000E+00   0.00000000000000E+00  -1.35550418897833E-13
     -3.06647643063033E-10  -3.06783193481931E-10  -1.00004880283859E-17   1.60000000000000E-02   1.60000000000000E-02
      0.00000000000000E+00   0.00000000000000E+00   0.00000000000000E+00   0.00000000000000E+00   0.00000000000000E+00
     -3.32128092440447E-17   3.80000000000000E-01   3.80000000000000E-01   0.00000000000000E+00   0.00000000000000E+00
      3.06786318659408E-10  -3.12517747684142E-15   3.06783193481931E-10   1.95956092842056E-17   1.20000000000000E-01
      1.20000000000000E-01   0.00000000000000E+00   0.00000000000000E+00   0.00000000000000E+00   0.00000000000000E+00
      0.00000000000000E+00   2.36176879882250E-17
      5.00000000000000E-02
      0.00000000000000E+00   0.00000000000000E+00   0.00000000000000E+00   0.00000000000000E+00  -1.36678259619844E-13
     -2.91571136070715E-10  -2.91707814330334E-10  -1.00456262448763E-17   2.00000000000000E-02   2.00000000000000E-02
      0.00000000000000E+00   0.00000000000000E+00   0.00000000000000E+00   0.00000000000000E+00   0.00000000000000E+00
     -3.20760199136426E-17   3.80000000000000E-01   3.80000000000000E-01   0.00000000000000E+00   0.00000000000000E+00
      2.91710138660877E-10  -2.32433054279255E-15   2.91707814330334E-10   1.95529574869327E-17   1.20000000000000E-01
      1.20000000000000E-01   0.00000000000000E+00   0.00000000000000E+00   0.00000000000000E+00   0.00000000000000E+00
      0.00000000000000E+00   2.25686886715862E-17
      6.00000000000000E-02
      0.00000000000000E+00   0.00000000000000E+00   0.00000000000000E+00   0.00000000000000E+00  -1.37809929236785E-13
     -2.77260094837294E-10  -2.77397904766530E-10  -1.00907146442905E-17   2.40000000000000E-02   2.40000000000000E-02
      0.00000000000000E+00   0.00000000000000E+00   0.00000000000000E+00   0.00000000000000E+00   0.00000000000000E+00
     -3.09392552322470E-17   3.80000000000000E-01   3.80000000000000E-01   0.00000000000000E+00   0.00000000000000E+00
      2.77399480736121E-10  -1.57596959109627E-15   2.77397904766530E-10   1.95103051274355E-17   1.20000000000000E-01
      1.20000000000000E-01   0.00000000000000E+00   0.00000000000000E+00   0.00000000000000E+00   0.00000000000000E+00
      0.00000000000000E+00   2.15196647491021E-17
      7.00000000000000E-02
      0.00000000000000E+00   0.00000000000000E+00   0.00000000000000E+00   0.00000000000000E+00  -1.38945392790925E-13
     -2.63679741324827E-10  -2.63818686717618E-10  -1.01357543111897E-17   2.80000000000000E-02   2.80000000000000E-02
      0.00000000000000E+00   0.00000000000000E+00   0.00000000000000E+00   0.00000000000000E+00   0.00000000000000E+00
     -2.98025146241966E-17   3.80000000000000E-01   3.80000000000000E-01   0.00000000000000E+00   0.00000000000000E+00
      2.63819563757765E-10  -8.77040147741046E-16   2.63818686717618E-10   1.94676521427901E-17   1.20000000000000E-01
      1.20000000000000E-01   0.00000000000000E+00   0.00000000000000E+00   0.00000000000000E+00   0.00000000000000E+00
      0.00000000000000E+00   2.04706167925962E-17
      8.00000000000000E-02
      0.00000000000000E+00   0.00000000000000E+00   0.00000000000000E+00   0.00000000000000E+00  -1.40084615325372E-13
     -2.50796643677917E-10  -2.50936728293242E-10  -1.01807463048251E-17   3.20000000000000E-02   3.20000000000000E-02
      0.00000000000000E+00   0.00000000000000E+00   0.00000000000000E+00   0.00000000000000E+00   0.00000000000000E+00
     -2.86657975283335E-17   3.80000000000000E-01   3.80000000000000E-01   0.00000000000000E+00   0.00000000000000E+00
      2.50936952940853E-10  -2.24647611039670E-16   2.50936728293242E-10   1.94249984734379E-17   1.20000000000000E-01
      1.20000000000000E-01   0.00000000000000E+00   0.00000000000000E+00   0.00000000000000E+00   0.00000000000000E+00
      0.00000000000000E+00   1.94215453597207E-17
      9.00000000000000E-02
      0.00000000000000E+00   0.00000000000000E+00   0.00000000000000E+00   0.00000000000000E+00  -1.41227561904135E-13
     -2.38578678180977E-10  -2.38719905742881E-10  -1.02256916597336E-17   3.60000000000000E-02   3.60000000000000E-02
      0.00000000000000E+00   0.00000000000000E+00   0.00000000000000E+00   0.00000000000000E+00   0.00000000000000E+00
     -2.75291033975526E-17   3.80000000000000E-01   3.80000000000000E-01   0.00000000000000E+00   0.00000000000000E+00
      2.38719521793637E-10   3.83949244140454E-16   2.38719905742881E-10   1.93823440629078E-17   1.20000000000000E-01
      1.20000000000000E-01   0.00000000000000E+00   0.00000000000000E+00   0.00000000000000E+00   0.00000000000000E+00
      0.00000000000000E+00   1.83724509943783E-17
      1.00000000000000E-01
      0.00000000000000E+00   0.00000000000000E+00   0.00000000000000E+00   0.00000000000000E+00  -1.42374197630711E-13
     -2.26994991707425E-10  -2.27137365905056E-10  -1.02705913863199E-17   4.00000000000000E-02   4.00000000000000E-02
      0.00000000000000E+00   0.00000000000000E+00   0.00000000000000E+00   0.00000000000000E+00   0.00000000000000E+00
     -2.63924316983693E-17   3.80000000000000E-01   3.80000000000000E-01   0.00000000000000E+00   0.00000000000000E+00
      2.27136414559201E-10   9.51345855017045E-16   2.27137365905056E-10   1.93396888575602E-17   1.20000000000000E-01
      1.20000000000000E-01   0.00000000000000E+00   0.00000000000000E+00   0.00000000000000E+00   0.00000000000000E+00
      0.00000000000000E+00   1.73233342271289E-17
      1.10000000000000E-01
      0.00000000000000E+00   0.00000000000000E+00   0.00000000000000E+00   0.00000000000000E+00  -1.43524487665315E-13
     -2.16015964671319E-10  -2.16159489158985E-10  -1.03154464714269E-17   4.40000000000000E-02   4.40000000000000E-02
      0.00000000000000E+00   0.00000000000000E+00   0.00000000000000E+00   0.00000000000000E+00   0.00000000000000E+00
     -2.52557819105042E-17   3.80000000000000E-01   3.80000000000000E-01   0.00000000000000E+00   0.00000000000000E+00
      2.16158009160370E-10   1.47999861480011E-15   2.16159489158985E-10   1.92970328063494E-17   1.20000000000000E-01
      1.20000000000000E-01   0.00000000000000E+00   0.00000000000000E+00   0.00000000000000E+00   0.00000000000000E+00
      0.00000000000000E+00   1.62741955755817E-17
      1.20000000000000E-01
      0.00000000000000E+00   0.00000000000000E+00   0.00000000000000E+00   0.00000000000000E+00  -1.44678397240870E-13
     -2.05613174494596E-10  -2.05757852891837E-10  -1.03602578788927E-17   4.80000000000000E-02   4.80000000000000E-02
      0.00000000000000E+00   0.00000000000000E+00   0.00000000000000E+00   0.00000000000000E+00   0.00000000000000E+00
     -2.41191535264837E-17   3.80000000000000E-01   3.80000000000000E-01   0.00000000000000E+00   0.00000000000000E+00
      2.05755880660111E-10   1.97223172586382E-15   2.05757852891837E-10   1.92543758606046E-17   1.20000000000000E-01
      1.20000000000000E-01   0.00000000000000E+00   0.00000000000000E+00   0.00000000000000E+00   0.00000000000000E+00
      0.00000000000000E+00   1.52250355447718E-17
      1.30000000000000E-01
      0.00000000000000E+00   0.00000000000000E+00   0.00000000000000E+00   0.00000000000000E+00  -1.45835891677837E-13
     -1.95759359600232E-10  -1.95905195491910E-10  -1.04050265500954E-17   5.20000000000000E-02   5.20000000000000E-02
      0.00000000000000E+00   0.00000000000000E+00   0.00000000000000E+00   0.00000000000000E+00   0.00000000000000E+00
     -2.29825460512566E-17   3.80000000000000E-01   3.80000000000000E-01   0.00000000000000E+00   0.00000000000000E+00
      1.95902765249346E-10   2.43024256385068E-15   1.95905195491910E-10   1.92117179738273E-17   1.20000000000000E-01
      1.20000000000000E-01   0.00000000000000E+00   0.00000000000000E+00   0.00000000000000E+00   0.00000000000000E+00
      0.00000000000000E+00   1.41758546275247E-17
      1.40000000000000E-01
      0.00000000000000E+00   0.00000000000000E+00   0.00000000000000E+00   0.00000000000000E+00  -1.46996936397990E-13
     -1.86428383946045E-10  -1.86575380882443E-10  -1.04497534044864E-17   5.60000000000000E-02   5.60000000000000E-02
      0.00000000000000E+00   0.00000000000000E+00   0.00000000000000E+00   0.00000000000000E+00   0.00000000000000E+00
     -2.18459590018247E-17   3.80000000000000E-01   3.80000000000000E-01   0.00000000000000E+00   0.00000000000000E+00
      1.86572524773825E-10   2.85610861742961E-15   1.86575380882443E-10   1.91690591015043E-17   1.20000000000000E-01
      1.20000000000000E-01   0.00000000000000E+00   0.00000000000000E+00   0.00000000000000E+00   0.00000000000000E+00
      0.00000000000000E+00   1.31266533048068E-17
      1.50000000000000E-01
      0.00000000000000E+00   0.00000000000000E+00   0.00000000000000E+00   0.00000000000000E+00  -1.48161496937202E-13
     -1.77595202107345E-10  -1.77743363604282E-10  -1.04944393401110E-17   6.00000000000000E-02   6.00000000000000E-02
      0.00000000000000E+00   0.00000000000000E+00   0.00000000000000E+00   0.00000000000000E+00   0.00000000000000E+00
     -2.07093919068872E-17   3.80000000000000E-01   3.80000000000000E-01   0.00000000000000E+00   0.00000000000000E+00
      1.77740111811364E-10   3.25179291761058E-15   1.77743363604282E-10   1.91263992009333E-17   1.20000000000000E-01
      1.20000000000000E-01   0.00000000000000E+00   0.00000000000000E+00   0.00000000000000E+00   0.00000000000000E+00
      0.00000000000000E+00   1.20774320460649E-17
      1.60000000000000E-01
      0.00000000000000E+00   0.00000000000000E+00   0.00000000000000E+00   0.00000000000000E+00  -1.49329538957329E-13
     -1.69235824921052E-10  -1.69385154460009E-10  -1.05390852341178E-17   6.40000000000000E-02   6.40000000000000E-02
      0.00000000000000E+00   0.00000000000000E+00   0.00000000000000E+00   0.00000000000000E+00   0.00000000000000E+00
     -1.95728443064986E-17   3.80000000000000E-01   3.80000000000000E-01   0.00000000000000E+00   0.00000000000000E+00
      1.69381535310457E-10   3.61914955218401E-15   1.69385154460010E-10   1.90837382310633E-17   1.20000000000000E-01
      1.20000000000000E-01   0.00000000000000E+00   0.00000000000000E+00   0.00000000000000E+00   0.00000000000000E+00
      0.00000000000000E+00   1.10281913095530E-17
      1.70000000000000E-01
      0.00000000000000E+00   0.00000000000000E+00   0.00000000000000E+00   0.00000000000000E+00  -1.50501028257238E-13
     -1.61327285701839E-10  -1.61477786730096E-10  -1.05836919432566E-17   6.80000000000000E-02   6.80000000000000E-02
      0.00000000000000E+00   0.00000000000000E+00   0.00000000000000E+00   0.00000000000000E+00   0.00000000000000E+00
     -1.84363157517377E-17   3.80000000000000E-01   3.80000000000000E-01   0.00000000000000E+00   0.00000000000000E+00
      1.61473826800883E-10   3.95992921272482E-15   1.61477786730096E-10   1.90410761523456E-17   1.20000000000000E-01
      1.20000000000000E-01   0.00000000000000E+00   0.00000000000000E+00   0.00000000000000E+00   0.00000000000000E+00
      0.00000000000000E+00   9.97893154264864E-18
      1.80000000000000E-01
      0.00000000000000E+00   0.00000000000000E+00   0.00000000000000E+00   0.00000000000000E+00  -1.51675930783064E-13
     -1.53847607039786E-10  -1.53999282970569E-10  -1.06282603043646E-17   7.20000000000000E-02   7.20000000000000E-02
      0.00000000000000E+00   0.00000000000000E+00   0.00000000000000E+00   0.00000000000000E+00   0.00000000000000E+00
     -1.72998058043902E-17   3.80000000000000E-01   3.80000000000000E-01   0.00000000000000E+00   0.00000000000000E+00
      1.53995007186599E-10   4.27578396987816E-15   1.53999282970569E-10   1.89984129265961E-17   1.20000000000000E-01
      1.20000000000000E-01   0.00000000000000E+00   0.00000000000000E+00   0.00000000000000E+00   0.00000000000000E+00
      0.00000000000000E+00   8.92965318215870E-18
      1.90000000000000E-01
      0.00000000000000E+00   0.00000000000000E+00   0.00000000000000E+00   0.00000000000000E+00  -1.52854212637730E-13
     -1.46775768190691E-10  -1.46928622403329E-10  -1.06727911348420E-17   7.60000000000000E-02   7.60000000000000E-02
      0.00000000000000E+00   0.00000000000000E+00   0.00000000000000E+00   0.00000000000000E+00   0.00000000000000E+00
     -1.61633140366406E-17   3.80000000000000E-01   3.80000000000000E-01   0.00000000000000E+00   0.00000000000000E+00
      1.46924054130803E-10   4.56827252526403E-15   1.46928622403329E-10   1.89557485168676E-17   1.20000000000000E-01
      1.20000000000000E-01   0.00000000000000E+00   0.00000000000000E+00   0.00000000000000E+00   0.00000000000000E+00
      0.00000000000000E+00   7.88035665461506E-18
      2.00000000000000E-01
      0.00000000000000E+00   0.00000000000000E+00   0.00000000000000E+00   0.00000000000000E+00  -1.54035840089787E-13
     -1.40091673067241E-10  -1.40245708907330E-10  -1.07172852331167E-17   8.00000000000000E-02   8.00000000000000E-02
      0.00000000000000E+00   0.00000000000000E+00   0.00000000000000E+00   0.00000000000000E+00   0.00000000000000E+00
     -1.50268400307757E-17   3.80000000000000E-01   3.80000000000000E-01   0.00000000000000E+00   0.00000000000000E+00
      1.40240870042683E-10   4.83886464733585E-15   1.40245708907330E-10   1.89130828873318E-17   1.20000000000000E-01
      1.20000000000000E-01   0.00000000000000E+00   0.00000000000000E+00   0.00000000000000E+00   0.00000000000000E+00
      0.00000000000000E+00   6.83104237656064E-18
      2.10000000000000E-01
      0.00000000000000E+00   0.00000000000000E+00   0.00000000000000E+00   0.00000000000000E+00  -1.55220779581632E-13
     -1.33776118841076E-10  -1.33931339620658E-10  -1.07617433790978E-17   8.40000000000000E-02   8.40000000000000E-02
      0.00000000000000E+00   0.00000000000000E+00   0.00000000000000E+00   0.00000000000000E+00   0.00000000000000E+00
     -1.38903833788979E-17   3.80000000000000E-01   3.80000000000000E-01   0.00000000000000E+00   0.00000000000000E+00
      1.33926250674942E-10   5.08894571608530E-15   1.33931339620658E-10   1.88704160031694E-17   1.20000000000000E-01
      1.20000000000000E-01   0.00000000000000E+00   0.00000000000000E+00   0.00000000000000E+00   0.00000000000000E+00
      0.00000000000000E+00   5.78171075482632E-18
      2.20000000000000E-01
      0.00000000000000E+00   0.00000000000000E+00   0.00000000000000E+00   0.00000000000000E+00  -1.56408997737129E-13
     -1.27810765164255E-10  -1.27967174161992E-10  -1.08061663346192E-17   8.80000000000000E-02   8.80000000000000E-02
      0.00000000000000E+00   0.00000000000000E+00   0.00000000000000E+00   0.00000000000000E+00   0.00000000000000E+00
     -1.27539436826481E-17   3.80000000000000E-01   3.80000000000000E-01   0.00000000000000E+00   0.00000000000000E+00
      1.27961854340813E-10   5.31982117920826E-15   1.27967174161992E-10   1.88277478304681E-17   1.20000000000000E-01
      1.20000000000000E-01   0.00000000000000E+00   0.00000000000000E+00   0.00000000000000E+00   0.00000000000000E+00
      0.00000000000000E+00   4.73236218679917E-18
      2.30000000000000E-01
      0.00000000000000E+00   0.00000000000000E+00   0.00000000000000E+00   0.00000000000000E+00  -1.57600461368677E-13
     -1.22178104017959E-10  -1.22335704479327E-10  -1.08505548438728E-17   9.20000000000000E-02   9.20000000000000E-02
      0.00000000000000E+00   0.00000000000000E+00   0.00000000000000E+00   0.00000000000000E+00   0.00000000000000E+00
     -1.16175205529376E-17   3.80000000000000E-01   3.80000000000000E-01   0.00000000000000E+00   0.00000000000000E+00
      1.22330171758823E-10   5.53272050461589E-15   1.22335704479327E-10   1.87850783361283E-17   1.20000000000000E-01
      1.20000000000000E-01   0.00000000000000E+00   0.00000000000000E+00   0.00000000000000E+00   0.00000000000000E+00
      0.00000000000000E+00   3.68299706068216E-18
      2.40000000000000E-01
      0.00000000000000E+00   0.00000000000000E+00   0.00000000000000E+00   0.00000000000000E+00  -1.58795137483776E-13
     -1.16861430196698E-10  -1.17020225334182E-10  -1.08949096338317E-17   9.60000000000000E-02   9.60000000000000E-02
      0.00000000000000E+00   0.00000000000000E+00   0.00000000000000E+00   0.00000000000000E+00   0.00000000000000E+00
     -1.04811136096893E-17   3.80000000000000E-01   3.80000000000000E-01   0.00000000000000E+00   0.00000000000000E+00
      1.17014496533185E-10   5.72880099682208E-15   1.17020225334182E-10   1.87424074877750E-17   1.20000000000000E-01
      1.20000000000000E-01   0.00000000000000E+00   0.00000000000000E+00   0.00000000000000E+00   0.00000000000000E+00
      0.00000000000000E+00   2.63361575574598E-18
      2.50000000000000E-01
      0.00000000000000E+00   0.00000000000000E+00   0.00000000000000E+00   0.00000000000000E+00  -1.59992993291108E-13
     -1.11844812435814E-10  -1.12004805429105E-10  -1.09392314146630E-17   1.00000000000000E-01   1.00000000000000E-01
      0.00000000000000E+00   0.00000000000000E+00   0.00000000000000E+00   0.00000000000000E+00   0.00000000000000E+00
     -9.34472248158623E-18   3.80000000000000E-01   3.80000000000000E-01   0.00000000000000E+00   0.00000000000000E+00
      1.11998896277245E-10   5.90915186021282E-15   1.12004805429105E-10   1.86997352536762E-17   1.20000000000000E-01
      1.20000000000000E-01   0.00000000000000E+00   0.00000000000000E+00   0.00000000000000E+00   0.00000000000000E+00
      0.00000000000000E+00   1.58421864257304E-18
      2.60000000000000E-01
      0.00000000000000E+00   0.00000000000000E+00   0.00000000000000E+00   0.00000000000000E+00  -1.61193996206162E-13
     -1.07113065188397E-10  -1.07274259184603E-10  -1.09835208801319E-17   1.04000000000000E-01   1.04000000000000E-01
      0.00000000000000E+00   0.00000000000000E+00   0.00000000000000E+00   0.00000000000000E+00   0.00000000000000E+00
     -8.20834680582900E-18   3.80000000000000E-01   3.80000000000000E-01   0.00000000000000E+00   0.00000000000000E+00
      1.07268184387001E-10   6.07479760263289E-15   1.07274259184603E-10   1.86570616026667E-17   1.20000000000000E-01
      1.20000000000000E-01   0.00000000000000E+00   0.00000000000000E+00   0.00000000000000E+00   0.00000000000000E+00
      0.00000000000000E+00   5.34806083294231E-19
      2.70000000000000E-01
      0.00000000000000E+00   0.00000000000000E+00   0.00000000000000E+00   0.00000000000000E+00  -1.62398113856460E-13
     -1.02651721058966E-10  -1.02814119172823E-10  -1.10277787079957E-17   1.08000000000000E-01   1.08000000000000E-01
      0.00000000000000E+00   0.00000000000000E+00   0.00000000000000E+00   0.00000000000000E+00   0.00000000000000E+00
     -7.07198622790030E-18   3.80000000000000E-01   3.80000000000000E-01   0.00000000000000E+00   0.00000000000000E+00
      1.02807892471295E-10   6.22670152780848E-15   1.02814119172823E-10   1.86143865040775E-17   1.20000000000000E-01
      1.20000000000000E-01   0.00000000000000E+00   0.00000000000000E+00   0.00000000000000E+00   0.00000000000000E+00
      0.00000000000000E+00  -5.14621568181516E-19
      2.80000000000000E-01
      0.00000000000000E+00   0.00000000000000E+00   0.00000000000000E+00   0.00000000000000E+00  -1.63605314086372E-13
     -9.84470038996128E-11  -9.86106092136992E-11  -1.10720055603883E-17   1.12000000000000E-01   1.12000000000000E-01
      0.00000000000000E+00   0.00000000000000E+00   0.00000000000000E+00   0.00000000000000E+00   0.00000000000000E+00
     -5.93564040133692E-18   3.80000000000000E-01   3.80000000000000E-01   0.00000000000000E+00   0.00000000000000E+00
      9.86042434448513E-11   6.36576884791262E-15   9.86106092136993E-11   1.85717099276696E-17   1.20000000000000E-01
      1.20000000000000E-01   0.00000000000000E+00   0.00000000000000E+00   0.00000000000000E+00   0.00000000000000E+00
      0.00000000000000E+00  -1.56406396594444E-18
      2.90000000000000E-01
      0.00000000000000E+00   0.00000000000000E+00   0.00000000000000E+00   0.00000000000000E+00  -1.64815564961584E-13
     -9.44858025750647E-11  -9.46506181400263E-11  -1.11162020841962E-17   1.16000000000000E-01   1.16000000000000E-01
      0.00000000000000E+00   0.00000000000000E+00   0.00000000000000E+00   0.00000000000000E+00   0.00000000000000E+00
     -4.79930898750867E-18   3.80000000000000E-01   3.80000000000000E-01   0.00000000000000E+00   0.00000000000000E+00
      9.46441252899262E-11   6.49285010002866E-15   9.46506181400262E-11   1.85290318435725E-17   1.20000000000000E-01
      1.20000000000000E-01   0.00000000000000E+00   0.00000000000000E+00   0.00000000000000E+00   0.00000000000000E+00
      0.00000000000000E+00  -2.61352077186761E-18
      3.00000000000000E-01
      0.00000000000000E+00   0.00000000000000E+00   0.00000000000000E+00   0.00000000000000E+00  -1.66028834773213E-13
     -9.07556454010025E-11  -9.09216742357757E-11  -1.11603689114257E-17   1.20000000000000E-01   1.20000000000000E-01
      0.00000000000000E+00   0.00000000000000E+00   0.00000000000000E+00   0.00000000000000E+00   0.00000000000000E+00
     -3.66299165540399E-18   3.80000000000000E-01   3.80000000000000E-01   0.00000000000000E+00   0.00000000000000E+00
      9.09150654919300E-11   6.60874384578333E-15   9.09216742357758E-11   1.84863522222267E-17   1.20000000000000E-01
      1.20000000000000E-01   0.00000000000000E+00   0.00000000000000E+00   0.00000000000000E+00   0.00000000000000E+00
      0.00000000000000E+00  -3.66299165539697E-18
      3.10000000000000E-01
      0.00000000000000E+00   0.00000000000000E+00   0.00000000000000E+00   0.00000000000000E+00  -1.67245092041613E-13
     -8.72446752615533E-11  -8.74119203535949E-11  -1.12045066595604E-17   1.24000000000000E-01   1.24000000000000E-01
      0.00000000000000E+00   0.00000000000000E+00   0.00000000000000E+00   0.00000000000000E+00   0.00000000000000E+00
     -2.52668808142203E-18   3.80000000000000E-01   3.80000000000000E-01   0.00000000000000E+00   0.00000000000000E+00
      8.74052061539854E-11   6.71419960953577E-15   8.74119203535949E-11   1.84436710343299E-17   1.20000000000000E-01
      1.20000000000000E-01   0.00000000000000E+00   0.00000000000000E+00   0.00000000000000E+00   0.00000000000000E+00
      0.00000000000000E+00  -4.71247629334739E-18
      3.20000000000000E-01
      0.00000000000000E+00   0.00000000000000E+00   0.00000000000000E+00   0.00000000000000E+00  -1.68464305519879E-13
     -8.39416254102486E-11  -8.41100897157685E-11  -1.12486159319114E-17   1.28000000000000E-01   1.28000000000000E-01
      0.00000000000000E+00   0.00000000000000E+00   0.00000000000000E+00   0.00000000000000E+00   0.00000000000000E+00
     -1.39039794917081E-18   3.80000000000000E-01   3.80000000000000E-01   0.00000000000000E+00   0.00000000000000E+00
      8.41032797949935E-11   6.80992077489006E-15   8.41100897157684E-11   1.84009882507868E-17   1.20000000000000E-01
      1.20000000000000E-01   0.00000000000000E+00   0.00000000000000E+00   0.00000000000000E+00   0.00000000000000E+00
      0.00000000000000E+00  -5.76197436970452E-18
      3.30000000000000E-01
      0.00000000000000E+00   0.00000000000000E+00   0.00000000000000E+00   0.00000000000000E+00  -1.69686444197081E-13
     -8.08357959579397E-11  -8.10054824021368E-11  -1.12926973179584E-17   1.32000000000000E-01   1.32000000000000E-01
      0.00000000000000E+00   0.00000000000000E+00   0.00000000000000E+00   0.00000000000000E+00   0.00000000000000E+00
     -2.54120949271355E-19   3.80000000000000E-01   3.80000000000000E-01   0.00000000000000E+00   0.00000000000000E+00
      8.09985858354081E-11   6.89656672866157E-15   8.10054824021368E-11   1.83583038426620E-17   1.20000000000000E-01
      1.20000000000000E-01   0.00000000000000E+00   0.00000000000000E+00   0.00000000000000E+00   0.00000000000000E+00
      0.00000000000000E+00  -6.81148557543225E-18
      3.40000000000000E-01
      0.00000000000000E+00   0.00000000000000E+00   0.00000000000000E+00   0.00000000000000E+00  -1.70911477301238E-13
     -7.79170310529742E-11  -7.80879425302754E-11  -1.13367513936826E-17   1.36000000000000E-01   1.36000000000000E-01
      0.00000000000000E+00   0.00000000000000E+00   0.00000000000000E+00   0.00000000000000E+00   0.00000000000000E+00
      8.82143220832490E-19   3.80000000000000E-01   3.80000000000000E-01   0.00000000000000E+00   0.00000000000000E+00
      7.80809677745489E-11   6.97475572657739E-15   7.80879425302755E-11   1.83156177811357E-17   1.20000000000000E-01
      1.20000000000000E-01   0.00000000000000E+00   0.00000000000000E+00   0.00000000000000E+00   0.00000000000000E+00
      0.00000000000000E+00  -7.86100960828555E-18
      3.50000000000000E-01
      0.00000000000000E+00   0.00000000000000E+00   0.00000000000000E+00   0.00000000000000E+00  -1.72139374302050E-13
     -7.51756967556642E-11  -7.53478361299662E-11  -1.13807787218926E-17   1.40000000000000E-01   1.40000000000000E-01
      0.00000000000000E+00   0.00000000000000E+00   0.00000000000000E+00   0.00000000000000E+00   0.00000000000000E+00
      2.01839485705883E-18   3.80000000000000E-01   3.80000000000000E-01   0.00000000000000E+00   0.00000000000000E+00
      7.53407910629407E-11   7.04506702544976E-15   7.53478361299662E-11   1.82729300374623E-17   1.20000000000000E-01
      1.20000000000000E-01   0.00000000000000E+00   0.00000000000000E+00   0.00000000000000E+00   0.00000000000000E+00
      0.00000000000000E+00  -8.91054617262859E-18
      3.60000000000000E-01
      0.00000000000000E+00   0.00000000000000E+00   0.00000000000000E+00   0.00000000000000E+00  -1.73370104913415E-13
     -7.26026596110184E-11  -7.27760297159318E-11  -1.14247798525409E-17   1.44000000000000E-01   1.44000000000000E-01
      0.00000000000000E+00   0.00000000000000E+00   0.00000000000000E+00   0.00000000000000E+00   0.00000000000000E+00
      3.15463424886718E-18   3.80000000000000E-01   3.80000000000000E-01   0.00000000000000E+00   0.00000000000000E+00
      7.27689216728212E-11   7.10804311063555E-15   7.27760297159318E-11   1.82302405829314E-17   1.20000000000000E-01
      1.20000000000000E-01   0.00000000000000E+00   0.00000000000000E+00   0.00000000000000E+00   0.00000000000000E+00
      0.00000000000000E+00  -9.96009497925776E-18
      3.70000000000000E-01
      0.00000000000000E+00   0.00000000000000E+00   0.00000000000000E+00   0.00000000000000E+00  -1.74603639095731E-13