DF-ISE text

Info {
  version   = 1.0
  type      = xyplot
  datasets  = [
    "time"
    "source OuterVoltage" "source InnerVoltage" "source QuasiFermiPotential" "source DisplacementCurrent" "source eCurrent"
    "source hCurrent" "source TotalCurrent" "source Charge" "topGate OuterVoltage" "topGate InnerVoltage"
    "topGate QuasiFermiPotential" "topGate DisplacementCurrent" "topGate eCurrent" "topGate hCurrent" "topGate TotalCurrent"
    "topGate Charge" "drain OuterVoltage" "drain InnerVoltage" "drain QuasiFermiPotential" "drain DisplacementCurrent"
    "drain eCurrent" "drain hCurrent" "drain TotalCurrent" "drain Charge" "bottomGate OuterVoltage"
    "bottomGate InnerVoltage" "bottomGate QuasiFermiPotential" "bottomGate DisplacementCurrent" "bottomGate eCurrent" "bottomGate hCurrent"
    "bottomGate TotalCurrent" "bottomGate Charge" ]
  functions = [
    Time
    OuterVoltage InnerVoltage QuasiFermiPotential DisplacementCurrent eCurrent
    hCurrent TotalCurrent Charge OuterVoltage InnerVoltage
    QuasiFermiPotential DisplacementCurrent eCurrent hCurrent TotalCurrent
    Charge OuterVoltage InnerVoltage QuasiFermiPotential DisplacementCurrent
    eCurrent hCurrent TotalCurrent Charge OuterVoltage
    InnerVoltage QuasiFermiPotential DisplacementCurrent eCurrent hCurrent
    TotalCurrent Charge ]
}

Data {
      1.00000000000000E-02
      0.00000000000000E+00   0.00000000000000E+00   0.00000000000000E+00   0.00000000000000E+00  -1.55215311238650E-13
     -2.40323326224983E-10  -2.40478541536222E-10  -1.07617333558518E-17   4.00000000000000E-03   4.00000000000000E-03
      0.00000000000000E+00   0.00000000000000E+00   0.00000000000000E+00   0.00000000000000E+00   0.00000000000000E+00
     -5.73927888586808E-17   3.60000000000000E-01   3.60000000000000E-01   0.00000000000000E+00   0.00000000000000E+00
      2.40471827369815E-10   6.71416640695017E-15   2.40478541536222E-10   1.84436871132303E-17   2.00000000000000E-01
      2.00000000000000E-01   0.00000000000000E+00   0.00000000000000E+00   0.00000000000000E+00   0.00000000000000E+00
      0.00000000000000E+00   4.97108351013023E-17
      2.00000000000000E-02
      0.00000000000000E+00   0.00000000000000E+00   0.00000000000000E+00   0.00000000000000E+00  -1.56404050049609E-13
     -2.25647107568142E-10  -2.25803511618192E-10  -1.08061563644901E-17   8.00000000000000E-03   8.00000000000000E-03
      0.00000000000000E+00   0.00000000000000E+00   0.00000000000000E+00   0.00000000000000E+00   0.00000000000000E+00
     -5.62563407680916E-17   3.60000000000000E-01   3.60000000000000E-01   0.00000000000000E+00   0.00000000000000E+00
      2.25796701732337E-10   6.80988585453840E-15   2.25803511618192E-10   1.84010023784119E-17   2.00000000000000E-01
      2.00000000000000E-01   0.00000000000000E+00   0.00000000000000E+00   0.00000000000000E+00   0.00000000000000E+00
      0.00000000000000E+00   4.86614947541698E-17
      3.00000000000000E-02
      0.00000000000000E+00   0.00000000000000E+00   0.00000000000000E+00   0.00000000000000E+00  -1.57595980500697E-13
     -2.11789053451185E-10  -2.11946649431685E-10  -1.08505449233515E-17   1.20000000000000E-02   1.20000000000000E-02
      0.00000000000000E+00   0.00000000000000E+00   0.00000000000000E+00   0.00000000000000E+00   0.00000000000000E+00
     -5.51199091730455E-17   3.60000000000000E-01   3.60000000000000E-01   0.00000000000000E+00   0.00000000000000E+00
      2.11939752901219E-10   6.89653046615441E-15   2.11946649431685E-10   1.83583161635561E-17   2.00000000000000E-01
      2.00000000000000E-01   0.00000000000000E+00   0.00000000000000E+00   0.00000000000000E+00   0.00000000000000E+00
      0.00000000000000E+00   4.76121379328409E-17
      4.00000000000000E-02
      0.00000000000000E+00   0.00000000000000E+00   0.00000000000000E+00   0.00000000000000E+00  -1.58791075226073E-13
     -1.98709766066715E-10  -1.98868557141941E-10  -1.08948997596331E-17   1.60000000000000E-02   1.60000000000000E-02
      0.00000000000000E+00   0.00000000000000E+00   0.00000000000000E+00   0.00000000000000E+00   0.00000000000000E+00
     -5.39834936892547E-17   3.60000000000000E-01   3.60000000000000E-01   0.00000000000000E+00   0.00000000000000E+00
      1.98861582423650E-10   6.97471829178481E-15   1.98868557141942E-10   1.83156284290504E-17   2.00000000000000E-01
      2.00000000000000E-01   0.00000000000000E+00   0.00000000000000E+00   0.00000000000000E+00   0.00000000000000E+00
      0.00000000000000E+00   4.65627650198374E-17
      5.00000000000000E-02
      0.00000000000000E+00   0.00000000000000E+00   0.00000000000000E+00   0.00000000000000E+00  -1.59989306488865E-13
     -1.86371380648688E-10  -1.86531369955177E-10  -1.09392215837127E-17   2.00000000000000E-02   2.00000000000000E-02
      0.00000000000000E+00   0.00000000000000E+00   0.00000000000000E+00   0.00000000000000E+00   0.00000000000000E+00
     -5.28470939413588E-17   3.60000000000000E-01   3.60000000000000E-01   0.00000000000000E+00   0.00000000000000E+00
      1.86524324926500E-10   7.04502867695573E-15   1.86531369955177E-10   1.82729391361737E-17   2.00000000000000E-01
      2.00000000000000E-01   0.00000000000000E+00   0.00000000000000E+00   0.00000000000000E+00   0.00000000000000E+00
      0.00000000000000E+00   4.55133763888979E-17
      6.00000000000000E-02
      0.00000000000000E+00   0.00000000000000E+00   0.00000000000000E+00   0.00000000000000E+00  -1.61190646244901E-13
     -1.74737523716508E-10  -1.74898714362753E-10  -1.09835110895538E-17   2.40000000000000E-02   2.40000000000000E-02
      0.00000000000000E+00   0.00000000000000E+00   0.00000000000000E+00   0.00000000000000E+00   0.00000000000000E+00
     -5.17107095626659E-17   3.60000000000000E-01   3.60000000000000E-01   0.00000000000000E+00   0.00000000000000E+00
      1.74891606358665E-10   7.10800408785746E-15   1.74898714362753E-10   1.82302482469941E-17   2.00000000000000E-01
      2.00000000000000E-01   0.00000000000000E+00   0.00000000000000E+00   0.00000000000000E+00   0.00000000000000E+00
      0.00000000000000E+00   4.44639724052256E-17
      7.00000000000000E-02
      0.00000000000000E+00   0.00000000000000E+00   0.00000000000000E+00   0.00000000000000E+00  -1.62395066200319E-13
     -1.63773271783241E-10  -1.63935666849441E-10  -1.10277689550997E-17   2.80000000000000E-02   2.80000000000000E-02
      0.00000000000000E+00   0.00000000000000E+00   0.00000000000000E+00   0.00000000000000E+00   0.00000000000000E+00
     -5.05743401949015E-17   3.60000000000000E-01   3.60000000000000E-01   0.00000000000000E+00   0.00000000000000E+00
      1.63928502697081E-10   7.16415236012807E-15   1.63935666849441E-10   1.81875557242731E-17   2.00000000000000E-01
      2.00000000000000E-01   0.00000000000000E+00   0.00000000000000E+00   0.00000000000000E+00   0.00000000000000E+00
      0.00000000000000E+00   4.34145534257281E-17
      8.00000000000000E-02
      0.00000000000000E+00   0.00000000000000E+00   0.00000000000000E+00   0.00000000000000E+00  -1.63602537863563E-13
     -1.53445110539688E-10  -1.53608713077551E-10  -1.10719958426592E-17   3.20000000000000E-02   3.20000000000000E-02
      0.00000000000000E+00   0.00000000000000E+00   0.00000000000000E+00   0.00000000000000E+00   0.00000000000000E+00
     -4.94379854879668E-17   3.60000000000000E-01   3.60000000000000E-01   0.00000000000000E+00   0.00000000000000E+00
      1.53601499128727E-10   7.21394882416234E-15   1.53608713077551E-10   1.81448615313775E-17   2.00000000000000E-01
      2.00000000000000E-01   0.00000000000000E+00   0.00000000000000E+00   0.00000000000000E+00   0.00000000000000E+00
      0.00000000000000E+00   4.23651197992485E-17
      9.00000000000000E-02
      0.00000000000000E+00   0.00000000000000E+00   0.00000000000000E+00   0.00000000000000E+00  -1.64813032592355E-13
     -1.43720894526186E-10  -1.43885707558778E-10  -1.11161923992835E-17   3.60000000000000E-02   3.60000000000000E-02
      0.00000000000000E+00   0.00000000000000E+00   0.00000000000000E+00   0.00000000000000E+00   0.00000000000000E+00
     -4.83016450997049E-17   3.60000000000000E-01   3.60000000000000E-01   0.00000000000000E+00   0.00000000000000E+00
      1.43878449720872E-10   7.25783790659001E-15   1.43885707558778E-10   1.81021656321970E-17   2.00000000000000E-01
      2.00000000000000E-01   0.00000000000000E+00   0.00000000000000E+00   0.00000000000000E+00   0.00000000000000E+00
      0.00000000000000E+00   4.13156718667914E-17
      1.00000000000000E-01
      0.00000000000000E+00   0.00000000000000E+00   0.00000000000000E+00   0.00000000000000E+00  -1.66026521636066E-13
     -1.34569807305408E-10  -1.34735833827045E-10  -1.11603592571329E-17   4.00000000000000E-02   4.00000000000000E-02
      0.00000000000000E+00   0.00000000000000E+00   0.00000000000000E+00   0.00000000000000E+00   0.00000000000000E+00
     -4.71653186956745E-17   3.60000000000000E-01   3.60000000000000E-01   0.00000000000000E+00   0.00000000000000E+00
      1.34728537591873E-10   7.29623517150632E-15   1.34735833827045E-10   1.80594679910675E-17   2.00000000000000E-01
      2.00000000000000E-01   0.00000000000000E+00   0.00000000000000E+00   0.00000000000000E+00   0.00000000000000E+00
      0.00000000000000E+00   4.02662099617399E-17
      1.10000000000000E-01
      0.00000000000000E+00   0.00000000000000E+00   0.00000000000000E+00   0.00000000000000E+00  -1.67242976173957E-13
     -1.25962322147555E-10  -1.26129565123729E-10  -1.12044970338358E-17   4.40000000000000E-02   4.40000000000000E-02
      0.00000000000000E+00   0.00000000000000E+00   0.00000000000000E+00   0.00000000000000E+00   0.00000000000000E+00
     -4.60290059489310E-17   3.60000000000000E-01   3.60000000000000E-01   0.00000000000000E+00   0.00000000000000E+00
      1.26122235594695E-10   7.32952903411102E-15   1.26129565123729E-10   1.80167685726998E-17   2.00000000000000E-01
      2.00000000000000E-01   0.00000000000000E+00   0.00000000000000E+00   0.00000000000000E+00   0.00000000000000E+00
      0.00000000000000E+00   3.92167344100669E-17
      1.20000000000000E-01
      0.00000000000000E+00   0.00000000000000E+00   0.00000000000000E+00   0.00000000000000E+00  -1.68462367349642E-13
     -1.17870163240190E-10  -1.18038625607539E-10  -1.12486063328393E-17   4.80000000000000E-02   4.80000000000000E-02
      0.00000000000000E+00   0.00000000000000E+00   0.00000000000000E+00   0.00000000000000E+00   0.00000000000000E+00
     -4.48927065398141E-17   3.60000000000000E-01   3.60000000000000E-01   0.00000000000000E+00   0.00000000000000E+00
      1.18031267525286E-10   7.35808225359686E-15   1.18038625607539E-10   1.79740673421128E-17   2.00000000000000E-01
      2.00000000000000E-01   0.00000000000000E+00   0.00000000000000E+00   0.00000000000000E+00   0.00000000000000E+00
      0.00000000000000E+00   3.81672455305406E-17
      1.30000000000000E-01
      0.00000000000000E+00   0.00000000000000E+00   0.00000000000000E+00   0.00000000000000E+00  -1.69684666302160E-13
     -1.10266267434975E-10  -1.10435952101277E-10  -1.12926877437504E-17   5.20000000000000E-02   5.20000000000000E-02
      0.00000000000000E+00   0.00000000000000E+00   0.00000000000000E+00   0.00000000000000E+00   0.00000000000000E+00
     -4.37564201557432E-17   3.60000000000000E-01   3.60000000000000E-01   0.00000000000000E+00   0.00000000000000E+00
      1.10428569867789E-10   7.38223348794090E-15   1.10435952101277E-10   1.79313642645712E-17   2.00000000000000E-01
      2.00000000000000E-01   0.00000000000000E+00   0.00000000000000E+00   0.00000000000000E+00   0.00000000000000E+00
      0.00000000000000E+00   3.71177436349224E-17
      1.40000000000000E-01
      0.00000000000000E+00   0.00000000000000E+00   0.00000000000000E+00   0.00000000000000E+00  -1.70909844193951E-13
     -1.03124746543091E-10  -1.03295656387285E-10  -1.13367418426700E-17   5.60000000000000E-02   5.60000000000000E-02
      0.00000000000000E+00   0.00000000000000E+00   0.00000000000000E+00   0.00000000000000E+00   0.00000000000000E+00
     -4.26201464910184E-17   3.60000000000000E-01   3.60000000000000E-01   0.00000000000000E+00   0.00000000000000E+00
      1.03288254088413E-10   7.40229887185700E-15   1.03295656387285E-10   1.78886593055275E-17   2.00000000000000E-01
      2.00000000000000E-01   0.00000000000000E+00   0.00000000000000E+00   0.00000000000000E+00   0.00000000000000E+00
      0.00000000000000E+00   3.60682290281608E-17
      1.50000000000000E-01
      0.00000000000000E+00   0.00000000000000E+00   0.00000000000000E+00   0.00000000000000E+00  -1.72137872236042E-13
     -9.64208501906442E-11  -9.65929880628802E-11  -1.13807691925184E-17   6.00000000000000E-02   6.00000000000000E-02
      0.00000000000000E+00   0.00000000000000E+00   0.00000000000000E+00   0.00000000000000E+00   0.00000000000000E+00
     -4.14838852466269E-17   3.60000000000000E-01   3.60000000000000E-01   0.00000000000000E+00   0.00000000000000E+00
      9.65855694895994E-11   7.41857328088051E-15   9.65929880628803E-11   1.78459524305673E-17   2.00000000000000E-01
      2.00000000000000E-01   0.00000000000000E+00   0.00000000000000E+00   0.00000000000000E+00   0.00000000000000E+00
      0.00000000000000E+00   3.50187020085780E-17
      1.60000000000000E-01
      0.00000000000000E+00   0.00000000000000E+00   0.00000000000000E+00   0.00000000000000E+00  -1.73368721710694E-13
     -9.01309292458788E-11  -9.03042979675895E-11  -1.14247703433532E-17   6.40000000000000E-02   6.40000000000000E-02
      0.00000000000000E+00   0.00000000000000E+00   0.00000000000000E+00   0.00000000000000E+00   0.00000000000000E+00
     -4.03476361300571E-17   3.60000000000000E-01   3.60000000000000E-01   0.00000000000000E+00   0.00000000000000E+00
      9.02968666358996E-11   7.43133168996101E-15   9.03042979675896E-11   1.78032436053580E-17   2.00000000000000E-01
      2.00000000000000E-01   0.00000000000000E+00   0.00000000000000E+00   0.00000000000000E+00   0.00000000000000E+00
      0.00000000000000E+00   3.39691628680522E-17
      1.70000000000000E-01
      0.00000000000000E+00   0.00000000000000E+00   0.00000000000000E+00   0.00000000000000E+00  -1.74602363991759E-13
     -8.42323998291247E-11  -8.44070021931165E-11  -1.14687458326792E-17   6.80000000000000E-02   6.80000000000000E-02
      0.00000000000000E+00   0.00000000000000E+00   0.00000000000000E+00   0.00000000000000E+00   0.00000000000000E+00
     -3.92113988551164E-17   3.60000000000000E-01   3.60000000000000E-01   0.00000000000000E+00   0.00000000000000E+00
      8.43995613627318E-11   7.44083038459557E-15   8.44070021931164E-11   1.77605327956013E-17   2.00000000000000E-01
      2.00000000000000E-01   0.00000000000000E+00   0.00000000000000E+00   0.00000000000000E+00   0.00000000000000E+00
      0.00000000000000E+00   3.29196118921943E-17
      1.80000000000000E-01
      0.00000000000000E+00   0.00000000000000E+00   0.00000000000000E+00   0.00000000000000E+00  -1.75838770562948E-13
     -7.87037079164585E-11  -7.88795466870215E-11  -1.15126961857514E-17   7.20000000000000E-02   7.20000000000000E-02
      0.00000000000000E+00   0.00000000000000E+00   0.00000000000000E+00   0.00000000000000E+00   0.00000000000000E+00
     -3.80751731417556E-17   3.60000000000000E-01   3.60000000000000E-01   0.00000000000000E+00   0.00000000000000E+00
      7.88720993788970E-11   7.44730812436036E-15   7.88795466870214E-11   1.77178199669871E-17   2.00000000000000E-01
      2.00000000000000E-01   0.00000000000000E+00   0.00000000000000E+00   0.00000000000000E+00   0.00000000000000E+00
      0.00000000000000E+00   3.18700493605199E-17
      1.90000000000000E-01
      0.00000000000000E+00   0.00000000000000E+00   0.00000000000000E+00   0.00000000000000E+00  -1.77077913034224E-13
     -7.35242945476352E-11  -7.37013724606694E-11  -1.15566219158701E-17   7.60000000000000E-02   7.60000000000000E-02
      0.00000000000000E+00   0.00000000000000E+00   0.00000000000000E+00   0.00000000000000E+00   0.00000000000000E+00
     -3.69389587158977E-17   3.60000000000000E-01   3.60000000000000E-01   0.00000000000000E+00   0.00000000000000E+00
      7.36939214734409E-11   7.45098722845969E-15   7.37013724606694E-11   1.76751050851516E-17   2.00000000000000E-01
      2.00000000000000E-01   0.00000000000000E+00   0.00000000000000E+00   0.00000000000000E+00   0.00000000000000E+00
      0.00000000000000E+00   3.08204755466162E-17
      2.00000000000000E-01
      0.00000000000000E+00   0.00000000000000E+00   0.00000000000000E+00   0.00000000000000E+00  -1.78319763156474E-13
     -6.86745616486359E-11  -6.88528814117923E-11  -1.16005235246689E-17   8.00000000000000E-02   8.00000000000000E-02
      0.00000000000000E+00   0.00000000000000E+00   0.00000000000000E+00   0.00000000000000E+00   0.00000000000000E+00
     -3.58027553092722E-17   3.60000000000000E-01   3.60000000000000E-01   0.00000000000000E+00   0.00000000000000E+00
      6.88454293371088E-11   7.45207468349790E-15   6.88528814117923E-11   1.76323881156369E-17   2.00000000000000E-01
      2.00000000000000E-01   0.00000000000000E+00   0.00000000000000E+00   0.00000000000000E+00   0.00000000000000E+00
      0.00000000000000E+00   2.97708907183043E-17
      2.10000000000000E-01
      0.00000000000000E+00   0.00000000000000E+00   0.00000000000000E+00   0.00000000000000E+00  -1.79564292834640E-13
     -6.41358384785012E-11  -6.43154027713358E-11  -1.16444015023964E-17   8.40000000000000E-02   8.40000000000000E-02
      0.00000000000000E+00   0.00000000000000E+00   0.00000000000000E+00   0.00000000000000E+00   0.00000000000000E+00
     -3.46665626592535E-17   3.60000000000000E-01   3.60000000000000E-01   0.00000000000000E+00   0.00000000000000E+00
      6.43079520082935E-11   7.45076304228401E-15   6.43154027713358E-11   1.75896690238525E-17   2.00000000000000E-01
      2.00000000000000E-01   0.00000000000000E+00   0.00000000000000E+00   0.00000000000000E+00   0.00000000000000E+00
      0.00000000000000E+00   2.87212951377974E-17
      2.20000000000000E-01
      0.00000000000000E+00   0.00000000000000E+00   0.00000000000000E+00   0.00000000000000E+00  -1.80811474139440E-13
     -5.98903487102542E-11  -6.00711601843937E-11  -1.16882563281900E-17   8.80000000000000E-02   8.80000000000000E-02
      0.00000000000000E+00   0.00000000000000E+00   0.00000000000000E+00   0.00000000000000E+00   0.00000000000000E+00
     -3.35303805087044E-17   3.60000000000000E-01   3.60000000000000E-01   0.00000000000000E+00   0.00000000000000E+00
      6.00637129529897E-11   7.44723140403135E-15   6.00711601843937E-11   1.75469477750399E-17   2.00000000000000E-01
      2.00000000000000E-01   0.00000000000000E+00   0.00000000000000E+00   0.00000000000000E+00   0.00000000000000E+00
      0.00000000000000E+00   2.76716890618544E-17
      2.30000000000000E-01
      0.00000000000000E+00   0.00000000000000E+00   0.00000000000000E+00   0.00000000000000E+00  -1.82061279317820E-13
     -5.59211781548203E-11  -5.61032394341381E-11  -1.17320884703438E-17   9.20000000000000E-02   9.20000000000000E-02
      0.00000000000000E+00   0.00000000000000E+00   0.00000000000000E+00   0.00000000000000E+00   0.00000000000000E+00
     -3.23942086058236E-17   3.60000000000000E-01   3.60000000000000E-01   0.00000000000000E+00   0.00000000000000E+00
      5.60957977878802E-11   7.44164625796620E-15   5.61032394341382E-11   1.75042243342376E-17   2.00000000000000E-01
      2.00000000000000E-01   0.00000000000000E+00   0.00000000000000E+00   0.00000000000000E+00   0.00000000000000E+00
      0.00000000000000E+00   2.66220727419297E-17
      2.40000000000000E-01
      0.00000000000000E+00   0.00000000000000E+00   0.00000000000000E+00   0.00000000000000E+00  -1.83313680802244E-13
     -5.22122431367708E-11  -5.23955568175731E-11  -1.17758983865696E-17   9.60000000000000E-02   9.60000000000000E-02
      0.00000000000000E+00   0.00000000000000E+00   0.00000000000000E+00   0.00000000000000E+00   0.00000000000000E+00
     -3.12580467039977E-17   3.60000000000000E-01   3.60000000000000E-01   0.00000000000000E+00   0.00000000000000E+00
      5.23881226552543E-11   7.43416231881202E-15   5.23955568175731E-11   1.74614986662489E-17   2.00000000000000E-01
      2.00000000000000E-01   0.00000000000000E+00   0.00000000000000E+00   0.00000000000000E+00   0.00000000000000E+00
      0.00000000000000E+00   2.55724464243184E-17
      2.50000000000000E-01
      0.00000000000000E+00   0.00000000000000E+00   0.00000000000000E+00   0.00000000000000E+00  -1.84568651218946E-13
     -4.87482595300996E-11  -4.89328281813185E-11  -1.18196865242519E-17   1.00000000000000E-01   1.00000000000000E-01
      0.00000000000000E+00   0.00000000000000E+00   0.00000000000000E+00   0.00000000000000E+00   0.00000000000000E+00
     -3.01218945616570E-17   3.60000000000000E-01   3.60000000000000E-01   0.00000000000000E+00   0.00000000000000E+00
      4.89254032580345E-11   7.42492328404481E-15   4.89328281813185E-11   1.74187707356105E-17   2.00000000000000E-01
      2.00000000000000E-01   0.00000000000000E+00   0.00000000000000E+00   0.00000000000000E+00   0.00000000000000E+00
      0.00000000000000E+00   2.45228103502984E-17
      2.60000000000000E-01
      0.00000000000000E+00   0.00000000000000E+00   0.00000000000000E+00   0.00000000000000E+00  -1.85826163395218E-13
     -4.55147124619195E-11  -4.57005386253147E-11  -1.18634533206961E-17   1.04000000000000E-01   1.04000000000000E-01
      0.00000000000000E+00   0.00000000000000E+00   0.00000000000000E+00   0.00000000000000E+00   0.00000000000000E+00
     -2.89857519421354E-17   3.60000000000000E-01   3.60000000000000E-01   0.00000000000000E+00   0.00000000000000E+00
      4.56931245627270E-11   7.41406258765499E-15   4.57005386253146E-11   1.73760405065629E-17   2.00000000000000E-01
      2.00000000000000E-01   0.00000000000000E+00   0.00000000000000E+00   0.00000000000000E+00   0.00000000000000E+00
      0.00000000000000E+00   2.34731647562685E-17
      2.70000000000000E-01
      0.00000000000000E+00   0.00000000000000E+00   0.00000000000000E+00   0.00000000000000E+00  -1.87086190365846E-13
     -4.24978266913484E-11  -4.26849128817143E-11  -1.19071992033709E-17   1.08000000000000E-01   1.08000000000000E-01
      0.00000000000000E+00   0.00000000000000E+00   0.00000000000000E+00   0.00000000000000E+00   0.00000000000000E+00
     -2.78496186135334E-17   3.60000000000000E-01   3.60000000000000E-01   0.00000000000000E+00   0.00000000000000E+00
      4.26775111776636E-11   7.40170405064244E-15   4.26849128817143E-11   1.73333079430215E-17   2.00000000000000E-01
      2.00000000000000E-01   0.00000000000000E+00   0.00000000000000E+00   0.00000000000000E+00   0.00000000000000E+00
      0.00000000000000E+00   2.24235098738829E-17
      2.80000000000000E-01
      0.00000000000000E+00   0.00000000000000E+00   0.00000000000000E+00   0.00000000000000E+00  -1.88348705378764E-13
     -3.96845376706027E-11  -3.98728863759814E-11  -1.19509245901454E-17   1.12000000000000E-01   1.12000000000000E-01
      0.00000000000000E+00   0.00000000000000E+00   0.00000000000000E+00   0.00000000000000E+00   0.00000000000000E+00
     -2.67134943485859E-17   3.60000000000000E-01   3.60000000000000E-01   0.00000000000000E+00   0.00000000000000E+00
      3.98654984134206E-11   7.38796256083267E-15   3.98728863759814E-11   1.72905730085495E-17   2.00000000000000E-01
      2.00000000000000E-01   0.00000000000000E+00   0.00000000000000E+00   0.00000000000000E+00   0.00000000000000E+00
      0.00000000000000E+00   2.13738459301818E-17
      2.90000000000000E-01
      0.00000000000000E+00   0.00000000000000E+00   0.00000000000000E+00   0.00000000000000E+00  -1.89613681899985E-13
     -3.70624632945696E-11  -3.72520769764696E-11  -1.19946298895189E-17   1.16000000000000E-01   1.16000000000000E-01
      0.00000000000000E+00   0.00000000000000E+00   0.00000000000000E+00   0.00000000000000E+00   0.00000000000000E+00
     -2.55773789245325E-17   3.60000000000000E-01   3.60000000000000E-01   0.00000000000000E+00   0.00000000000000E+00
      3.72447040318245E-11   7.37294464510910E-15   3.72520769764696E-11   1.72478356663313E-17   2.00000000000000E-01
      2.00000000000000E-01   0.00000000000000E+00   0.00000000000000E+00   0.00000000000000E+00   0.00000000000000E+00
      0.00000000000000E+00   2.03241731477201E-17
      3.00000000000000E-01
      0.00000000000000E+00   0.00000000000000E+00   0.00000000000000E+00   0.00000000000000E+00  -1.90881093617902E-13
     -3.46198763449184E-11  -3.48107574385363E-11  -1.20383155008465E-17   1.20000000000000E-01   1.20000000000000E-01
      0.00000000000000E+00   0.00000000000000E+00   0.00000000000000E+00   0.00000000000000E+00   0.00000000000000E+00
     -2.44412721229913E-17   3.60000000000000E-01   3.60000000000000E-01   0.00000000000000E+00   0.00000000000000E+00
      3.48034006894694E-11   7.35674906695415E-15   3.48107574385363E-11   1.72050958791468E-17   2.00000000000000E-01
      2.00000000000000E-01   0.00000000000000E+00   0.00000000000000E+00   0.00000000000000E+00   0.00000000000000E+00
      0.00000000000000E+00   1.92744917446910E-17
      3.10000000000000E-01
      0.00000000000000E+00   0.00000000000000E+00   0.00000000000000E+00   0.00000000000000E+00  -1.92150914446995E-13
     -3.23456776340467E-11  -3.25378285484937E-11  -1.20819818145583E-17   1.24000000000000E-01   1.24000000000000E-01
      0.00000000000000E+00   0.00000000000000E+00   0.00000000000000E+00   0.00000000000000E+00   0.00000000000000E+00
     -2.33051737298362E-17   3.60000000000000E-01   3.60000000000000E-01   0.00000000000000E+00   0.00000000000000E+00
      3.25304890811752E-11   7.33946731853875E-15   3.25378285484937E-11   1.71623536093469E-17   2.00000000000000E-01
      2.00000000000000E-01   0.00000000000000E+00   0.00000000000000E+00   0.00000000000000E+00   0.00000000000000E+00
      0.00000000000000E+00   1.82248019350477E-17
      3.20000000000000E-01
      0.00000000000000E+00   0.00000000000000E+00   0.00000000000000E+00   0.00000000000000E+00  -1.93423118531002E-13
     -3.02293698539682E-11  -3.04227929724992E-11  -1.21256292123738E-17   1.28000000000000E-01   1.28000000000000E-01
      0.00000000000000E+00   0.00000000000000E+00   0.00000000000000E+00   0.00000000000000E+00   0.00000000000000E+00
     -2.21690835350774E-17   3.60000000000000E-01   3.60000000000000E-01   0.00000000000000E+00   0.00000000000000E+00
      3.04154717883280E-11   7.32118417123642E-15   3.04227929724992E-11   1.71196088188292E-17   2.00000000000000E-01
      2.00000000000000E-01   0.00000000000000E+00   0.00000000000000E+00   0.00000000000000E+00   0.00000000000000E+00
      0.00000000000000E+00   1.71751039286220E-17
      3.30000000000000E-01
      0.00000000000000E+00   0.00000000000000E+00   0.00000000000000E+00   0.00000000000000E+00  -1.94697680245620E-13
     -2.82610321344032E-11  -2.84557298146488E-11  -1.21692580675103E-17   1.32000000000000E-01   1.32000000000000E-01
      0.00000000000000E+00   0.00000000000000E+00   0.00000000000000E+00   0.00000000000000E+00   0.00000000000000E+00
     -2.10330013327444E-17   3.60000000000000E-01   3.60000000000000E-01   0.00000000000000E+00   0.00000000000000E+00
      2.84484278365502E-11   7.30197809859284E-15   2.84557298146488E-11   1.70768614690148E-17   2.00000000000000E-01
      2.00000000000000E-01   0.00000000000000E+00   0.00000000000000E+00   0.00000000000000E+00   0.00000000000000E+00
      0.00000000000000E+00   1.61253979312398E-17
      3.40000000000000E-01
      0.00000000000000E+00   0.00000000000000E+00   0.00000000000000E+00   0.00000000000000E+00  -1.95974574200754E-13
     -2.64312953142030E-11  -2.66272698884037E-11  -1.22128687448867E-17   1.36000000000000E-01   1.36000000000000E-01
      0.00000000000000E+00   0.00000000000000E+00   0.00000000000000E+00   0.00000000000000E+00   0.00000000000000E+00
     -1.98969269207723E-17   3.60000000000000E-01   3.60000000000000E-01   0.00000000000000E+00   0.00000000000000E+00
      2.66199879666585E-11   7.28192174527705E-15   2.66272698884038E-11   1.70341115208255E-17   2.00000000000000E-01
      2.00000000000000E-01   0.00000000000000E+00   0.00000000000000E+00   0.00000000000000E+00   0.00000000000000E+00
      0.00000000000000E+00   1.50756841448335E-17
      3.50000000000000E-01
      0.00000000000000E+00   0.00000000000000E+00   0.00000000000000E+00   0.00000000000000E+00  -1.97253775242369E-13
     -2.47313179294495E-11  -2.49285717046919E-11  -1.22564616013223E-17   1.40000000000000E-01   1.40000000000000E-01
      0.00000000000000E+00   0.00000000000000E+00   0.00000000000000E+00   0.00000000000000E+00   0.00000000000000E+00
     -1.87608601008910E-17   3.60000000000000E-01   3.60000000000000E-01   0.00000000000000E+00   0.00000000000000E+00
      2.49213106223813E-11   7.26108231062005E-15   2.49285717046919E-11   1.69913589346613E-17   2.00000000000000E-01
      2.00000000000000E-01   0.00000000000000E+00   0.00000000000000E+00   0.00000000000000E+00   0.00000000000000E+00
      0.00000000000000E+00   1.40259627675520E-17
      3.60000000000000E-01
      0.00000000000000E+00   0.00000000000000E+00   0.00000000000000E+00   0.00000000000000E+00  -1.98535258453988E-13
     -2.31527629213419E-11  -2.33512981797959E-11  -1.23000369857304E-17   1.44000000000000E-01   1.44000000000000E-01
      0.00000000000000E+00   0.00000000000000E+00   0.00000000000000E+00   0.00000000000000E+00   0.00000000000000E+00
     -1.76248006785167E-17   3.60000000000000E-01   3.60000000000000E-01   0.00000000000000E+00   0.00000000000000E+00
      2.33440586578326E-11   7.23952196332941E-15   2.33512981797959E-11   1.69486036703787E-17   2.00000000000000E-01
      2.00000000000000E-01   0.00000000000000E+00   0.00000000000000E+00   0.00000000000000E+00   0.00000000000000E+00
      0.00000000000000E+00   1.29762339938683E-17
      3.70000000000000E-01
      0.00000000000000E+00   0.00000000000000E+00   0.00000000000000E+00   0.00000000000000E+00  -1.99818999157849E-13