DF-ISE text

Info {
  version   = 1.0
  type      = xyplot
  datasets  = [
    "time"
    "source OuterVoltage" "source InnerVoltage" "source QuasiFermiPotential" "source DisplacementCurrent" "source eCurrent"
    "source hCurrent" "source TotalCurrent" "source Charge" "topGate OuterVoltage" "topGate InnerVoltage"
    "topGate QuasiFermiPotential" "topGate DisplacementCurrent" "topGate eCurrent" "topGate hCurrent" "topGate TotalCurrent"
    "topGate Charge" "drain OuterVoltage" "drain InnerVoltage" "drain QuasiFermiPotential" "drain DisplacementCurrent"
    "drain eCurrent" "drain hCurrent" "drain TotalCurrent" "drain Charge" "bottomGate OuterVoltage"
    "bottomGate InnerVoltage" "bottomGate QuasiFermiPotential" "bottomGate DisplacementCurrent" "bottomGate eCurrent" "bottomGate hCurrent"
    "bottomGate TotalCurrent" "bottomGate Charge" ]
  functions = [
    Time
    OuterVoltage InnerVoltage QuasiFermiPotential DisplacementCurrent eCurrent
    hCurrent TotalCurrent Charge OuterVoltage InnerVoltage
    QuasiFermiPotential DisplacementCurrent eCurrent hCurrent TotalCurrent
    Charge OuterVoltage InnerVoltage QuasiFermiPotential DisplacementCurrent
    eCurrent hCurrent TotalCurrent Charge OuterVoltage
    InnerVoltage QuasiFermiPotential DisplacementCurrent eCurrent hCurrent
    TotalCurrent Charge ]
}

Data {
      1.00000000000000E-02
      0.00000000000000E+00   0.00000000000000E+00   0.00000000000000E+00   0.00000000000000E+00  -1.15892869371997E-13
     -1.47592660495095E-11  -1.48751589188815E-11  -9.17799055981343E-18   4.00000000000000E-03   4.00000000000000E-03
      0.00000000000000E+00   0.00000000000000E+00   0.00000000000000E+00   0.00000000000000E+00   0.00000000000000E+00
     -1.89721528252101E-17   2.00000000000000E-01   2.00000000000000E-01   0.00000000000000E+00   0.00000000000000E+00
      1.48681670631251E-11   6.99185575644227E-15   1.48751589188815E-11   1.65212535431008E-17   6.00000000000000E-02
      6.00000000000000E-02   0.00000000000000E+00   0.00000000000000E+00   0.00000000000000E+00   0.00000000000000E+00
      0.00000000000000E+00   1.16288898419227E-17
      2.00000000000000E-02
      0.00000000000000E+00   0.00000000000000E+00   0.00000000000000E+00   0.00000000000000E+00  -1.16945187865618E-13
     -1.37581660362505E-11  -1.38751112241161E-11  -9.22424362463466E-18   8.00000000000000E-03   8.00000000000000E-03
      0.00000000000000E+00   0.00000000000000E+00   0.00000000000000E+00   0.00000000000000E+00   0.00000000000000E+00
     -1.78347223394652E-17   2.00000000000000E-01   2.00000000000000E-01   0.00000000000000E+00   0.00000000000000E+00
      1.38681458685217E-11   6.96535559433630E-15   1.38751112241161E-11   1.64784349265746E-17   6.00000000000000E-02
      6.00000000000000E-02   0.00000000000000E+00   0.00000000000000E+00   0.00000000000000E+00   0.00000000000000E+00
      0.00000000000000E+00   1.05805310375253E-17
      3.00000000000000E-02
      0.00000000000000E+00   0.00000000000000E+00   0.00000000000000E+00   0.00000000000000E+00  -1.18001970431160E-13
     -1.28340268339783E-11  -1.29520288044094E-11  -9.27042227332799E-18   1.20000000000000E-02   1.20000000000000E-02
      0.00000000000000E+00   0.00000000000000E+00   0.00000000000000E+00   0.00000000000000E+00   0.00000000000000E+00
     -1.66973286456822E-17   2.00000000000000E-01   2.00000000000000E-01   0.00000000000000E+00   0.00000000000000E+00
      1.29450902073507E-11   6.93859705874400E-15   1.29520288044094E-11   1.64356153616816E-17   6.00000000000000E-02
      6.00000000000000E-02   0.00000000000000E+00   0.00000000000000E+00   0.00000000000000E+00   0.00000000000000E+00
      0.00000000000000E+00   9.53213555732859E-18
      4.00000000000000E-02
      0.00000000000000E+00   0.00000000000000E+00   0.00000000000000E+00   0.00000000000000E+00  -1.19063183036826E-13
     -1.19814590044766E-11  -1.21005221875135E-11  -9.31652816290518E-18   1.60000000000000E-02   1.60000000000000E-02
      0.00000000000000E+00   0.00000000000000E+00   0.00000000000000E+00   0.00000000000000E+00   0.00000000000000E+00
     -1.55599708016913E-17   2.00000000000000E-01   2.00000000000000E-01   0.00000000000000E+00   0.00000000000000E+00
      1.20936105868024E-11   6.91160071103090E-15   1.21005221875135E-11   1.63927946321400E-17   6.00000000000000E-02
      6.00000000000000E-02   0.00000000000000E+00   0.00000000000000E+00   0.00000000000000E+00   0.00000000000000E+00
      0.00000000000000E+00   8.48370433245642E-18
      5.00000000000000E-02
      0.00000000000000E+00   0.00000000000000E+00   0.00000000000000E+00   0.00000000000000E+00  -1.20128791392246E-13
     -1.11954146578022E-11  -1.13155434491945E-11  -9.36256291197097E-18   2.00000000000000E-02   2.00000000000000E-02
      0.00000000000000E+00   0.00000000000000E+00   0.00000000000000E+00   0.00000000000000E+00   0.00000000000000E+00
     -1.44226478908807E-17   2.00000000000000E-01   2.00000000000000E-01   0.00000000000000E+00   0.00000000000000E+00
      1.13086590603903E-11   6.88438880413616E-15   1.13155434491945E-11   1.63499725333781E-17   6.00000000000000E-02
      6.00000000000000E-02   0.00000000000000E+00   0.00000000000000E+00   0.00000000000000E+00   0.00000000000000E+00
      0.00000000000000E+00   7.43523826947358E-18
      6.00000000000000E-02
      0.00000000000000E+00   0.00000000000000E+00   0.00000000000000E+00   0.00000000000000E+00  -1.21198760974737E-13
     -1.04711696605658E-11  -1.05923684215405E-11  -9.40852810157936E-18   2.40000000000000E-02   2.40000000000000E-02
      0.00000000000000E+00   0.00000000000000E+00   0.00000000000000E+00   0.00000000000000E+00   0.00000000000000E+00
     -1.32853590212370E-17   2.00000000000000E-01   2.00000000000000E-01   0.00000000000000E+00   0.00000000000000E+00
      1.05855114426213E-11   6.85697891924740E-15   1.05923684215405E-11   1.63071488715588E-17   6.00000000000000E-02
      6.00000000000000E-02   0.00000000000000E+00   0.00000000000000E+00   0.00000000000000E+00   0.00000000000000E+00
      0.00000000000000E+00   6.38673825125760E-18
      7.00000000000000E-02
      0.00000000000000E+00   0.00000000000000E+00   0.00000000000000E+00   0.00000000000000E+00  -1.22273057054277E-13
     -9.80430651365948E-12  -9.92657957071375E-12  -9.45442527607455E-18   2.80000000000000E-02   2.80000000000000E-02
      0.00000000000000E+00   0.00000000000000E+00   0.00000000000000E+00   0.00000000000000E+00   0.00000000000000E+00
     -1.21481033244337E-17   2.00000000000000E-01   2.00000000000000E-01   0.00000000000000E+00   0.00000000000000E+00
      9.91975018230746E-12   6.82938840628992E-15   9.92657957071375E-12   1.62643234626783E-17   6.00000000000000E-02
      6.00000000000000E-02   0.00000000000000E+00   0.00000000000000E+00   0.00000000000000E+00   0.00000000000000E+00
      0.00000000000000E+00   5.33820513782997E-18
      8.00000000000000E-02
      0.00000000000000E+00   0.00000000000000E+00   0.00000000000000E+00   0.00000000000000E+00  -1.23351644717239E-13
     -9.19069787464850E-12  -9.31404951936574E-12  -9.50025594391607E-18   3.20000000000000E-02   3.20000000000000E-02
      0.00000000000000E+00   0.00000000000000E+00   0.00000000000000E+00   0.00000000000000E+00   0.00000000000000E+00
     -1.10108799549646E-17   2.00000000000000E-01   2.00000000000000E-01   0.00000000000000E+00   0.00000000000000E+00
      9.30724788667652E-12   6.80163268922674E-15   9.31404951936575E-12   1.62214961317314E-17   6.00000000000000E-02
      6.00000000000000E-02   0.00000000000000E+00   0.00000000000000E+00   0.00000000000000E+00   0.00000000000000E+00
      0.00000000000000E+00   4.28963976714920E-18
      9.00000000000000E-02
      0.00000000000000E+00   0.00000000000000E+00   0.00000000000000E+00   0.00000000000000E+00  -1.24434488888974E-13
     -8.62649072566561E-12  -8.75092521455458E-12  -9.54602157848868E-18   3.60000000000000E-02   3.60000000000000E-02
      0.00000000000000E+00   0.00000000000000E+00   0.00000000000000E+00   0.00000000000000E+00   0.00000000000000E+00
     -9.87368808931961E-18   2.00000000000000E-01   2.00000000000000E-01   0.00000000000000E+00   0.00000000000000E+00
      8.74415148778167E-12   6.77372677291765E-15   8.75092521455458E-12   1.61786667119401E-17   6.00000000000000E-02
      6.00000000000000E-02   0.00000000000000E+00   0.00000000000000E+00   0.00000000000000E+00   0.00000000000000E+00
      0.00000000000000E+00   3.24104295586823E-18
      1.00000000000000E-01
      0.00000000000000E+00   0.00000000000000E+00   0.00000000000000E+00   0.00000000000000E+00  -1.25521554355296E-13
     -8.10809117190733E-12  -8.23361272626262E-12  -9.59172361889663E-18   4.00000000000000E-02   4.00000000000000E-02
      0.00000000000000E+00   0.00000000000000E+00   0.00000000000000E+00   0.00000000000000E+00   0.00000000000000E+00
     -8.73652692519983E-18   2.00000000000000E-01   2.00000000000000E-01   0.00000000000000E+00   0.00000000000000E+00
      8.22686704209699E-12   6.74568416564227E-15   8.23361272626263E-12   1.61358350440381E-17   6.00000000000000E-02
      6.00000000000000E-02   0.00000000000000E+00   0.00000000000000E+00   0.00000000000000E+00   0.00000000000000E+00
      0.00000000000000E+00   2.19241550005838E-18
      1.10000000000000E-01
      0.00000000000000E+00   0.00000000000000E+00   0.00000000000000E+00   0.00000000000000E+00  -1.26612805782940E-13
     -7.63214986483566E-12  -7.75876267061860E-12  -9.63736347074287E-18   4.40000000000000E-02   4.40000000000000E-02
      0.00000000000000E+00   0.00000000000000E+00   0.00000000000000E+00   0.00000000000000E+00   0.00000000000000E+00
     -7.59939568076887E-18   2.00000000000000E-01   2.00000000000000E-01   0.00000000000000E+00   0.00000000000000E+00
      7.75204515359070E-12   6.71751702790953E-15   7.75876267061861E-12   1.60930009756099E-17   6.00000000000000E-02
      6.00000000000000E-02   0.00000000000000E+00   0.00000000000000E+00   0.00000000000000E+00   0.00000000000000E+00
      0.00000000000000E+00   1.14375817590187E-18
      1.20000000000000E-01
      0.00000000000000E+00   0.00000000000000E+00   0.00000000000000E+00   0.00000000000000E+00  -1.27708207739053E-13
     -7.19554803925379E-12  -7.32325624699284E-12  -9.68294250689292E-18   4.80000000000000E-02   4.80000000000000E-02
      0.00000000000000E+00   0.00000000000000E+00   0.00000000000000E+00   0.00000000000000E+00   0.00000000000000E+00
     -6.46229359393908E-18   2.00000000000000E-01   2.00000000000000E-01   0.00000000000000E+00   0.00000000000000E+00
      7.31656701001767E-12   6.68923697517710E-15   7.32325624699285E-12   1.60501643604772E-17   6.00000000000000E-02
      6.00000000000000E-02   0.00000000000000E+00   0.00000000000000E+00   0.00000000000000E+00   0.00000000000000E+00
      0.00000000000000E+00   9.50717403548065E-20
      1.30000000000000E-01
      0.00000000000000E+00   0.00000000000000E+00   0.00000000000000E+00   0.00000000000000E+00  -1.28807724709745E-13
     -6.79538415104183E-12  -6.92419187575158E-12  -9.72846206822383E-18   5.20000000000000E-02   5.20000000000000E-02
      0.00000000000000E+00   0.00000000000000E+00   0.00000000000000E+00   0.00000000000000E+00   0.00000000000000E+00
     -5.32521992168964E-18   2.00000000000000E-01   2.00000000000000E-01   0.00000000000000E+00   0.00000000000000E+00
      6.91753102165738E-12   6.66085409420190E-15   6.92419187575158E-12   1.60073250581310E-17   6.00000000000000E-02
      6.00000000000000E-02   0.00000000000000E+00   0.00000000000000E+00   0.00000000000000E+00   0.00000000000000E+00
      0.00000000000000E+00  -9.53643068217526E-19
      1.40000000000000E-01
      0.00000000000000E+00   0.00000000000000E+00   0.00000000000000E+00   0.00000000000000E+00  -1.29911321117781E-13
     -6.42896110856330E-12  -6.55887242968108E-12  -9.77392346435818E-18   5.60000000000000E-02   5.60000000000000E-02
      0.00000000000000E+00   0.00000000000000E+00   0.00000000000000E+00   0.00000000000000E+00   0.00000000000000E+00
     -4.18817393941497E-18   2.00000000000000E-01   2.00000000000000E-01   0.00000000000000E+00   0.00000000000000E+00
      6.55224005125167E-12   6.63237842941183E-15   6.55887242968108E-12   1.59644829332046E-17   6.00000000000000E-02
      6.00000000000000E-02   0.00000000000000E+00   0.00000000000000E+00   0.00000000000000E+00   0.00000000000000E+00
      0.00000000000000E+00  -2.00238552943148E-18
      1.50000000000000E-01
      0.00000000000000E+00   0.00000000000000E+00   0.00000000000000E+00   0.00000000000000E+00  -1.31018961339425E-13
     -6.09377408119893E-12  -6.22479304253836E-12  -9.81932797438337E-18   6.00000000000000E-02   6.00000000000000E-02
      0.00000000000000E+00   0.00000000000000E+00   0.00000000000000E+00   0.00000000000000E+00   0.00000000000000E+00
     -3.05115494030132E-18   2.00000000000000E-01   2.00000000000000E-01   0.00000000000000E+00   0.00000000000000E+00
      6.21818922347007E-12   6.60381906828448E-15   6.22479304253836E-12   1.59216378549852E-17   6.00000000000000E-02
      6.00000000000000E-02   0.00000000000000E+00   0.00000000000000E+00   0.00000000000000E+00   0.00000000000000E+00
      0.00000000000000E+00  -3.05115494030048E-18
      1.60000000000000E-01
      0.00000000000000E+00   0.00000000000000E+00   0.00000000000000E+00   0.00000000000000E+00  -1.32130609720496E-13
     -5.78749887563582E-12  -5.91962948535631E-12  -9.86467684755626E-18   6.40000000000000E-02   6.40000000000000E-02
      0.00000000000000E+00   0.00000000000000E+00   0.00000000000000E+00   0.00000000000000E+00   0.00000000000000E+00
     -1.91416223472993E-18   2.00000000000000E-01   2.00000000000000E-01   0.00000000000000E+00   0.00000000000000E+00
      5.91305430185157E-12   6.57518350474134E-15   5.91962948535631E-12   1.58787896969597E-17   6.00000000000000E-02
      6.00000000000000E-02   0.00000000000000E+00   0.00000000000000E+00   0.00000000000000E+00   0.00000000000000E+00
      0.00000000000000E+00  -4.09995061467352E-18
      1.70000000000000E-01
      0.00000000000000E+00   0.00000000000000E+00   0.00000000000000E+00   0.00000000000000E+00  -1.33246230591676E-13
     -5.50798086987980E-12  -5.64122710047148E-12  -9.90997130399356E-18   6.80000000000000E-02   6.80000000000000E-02
      0.00000000000000E+00   0.00000000000000E+00   0.00000000000000E+00   0.00000000000000E+00   0.00000000000000E+00
     -7.77195149705139E-19   2.00000000000000E-01   2.00000000000000E-01   0.00000000000000E+00   0.00000000000000E+00
      5.63468062084400E-12   6.54647962747971E-15   5.64122710047148E-12   1.58359383363943E-17   6.00000000000000E-02
      6.00000000000000E-02   0.00000000000000E+00   0.00000000000000E+00   0.00000000000000E+00   0.00000000000000E+00
      0.00000000000000E+00  -5.14877188269557E-18
      1.80000000000000E-01
      0.00000000000000E+00   0.00000000000000E+00   0.00000000000000E+00   0.00000000000000E+00  -1.34365788283097E-13
     -5.25322448674847E-12  -5.38759027503156E-12  -9.95521253534778E-18   7.20000000000000E-02   7.20000000000000E-02
      0.00000000000000E+00   0.00000000000000E+00   0.00000000000000E+00   0.00000000000000E+00   0.00000000000000E+00
      3.59746971694132E-19   2.00000000000000E-01   2.00000000000000E-01   0.00000000000000E+00   0.00000000000000E+00
      5.38107256028880E-12   6.51771474275949E-15   5.38759027503156E-12   1.57930836539422E-17   6.00000000000000E-02
      6.00000000000000E-02   0.00000000000000E+00   0.00000000000000E+00   0.00000000000000E+00   0.00000000000000E+00
      0.00000000000000E+00  -6.19761809028856E-18
      1.90000000000000E-01
      0.00000000000000E+00   0.00000000000000E+00   0.00000000000000E+00   0.00000000000000E+00  -1.35489247138242E-13
     -5.02138319772018E-12  -5.15687244485842E-12  -1.00004017054692E-17   7.60000000000000E-02   7.60000000000000E-02
      0.00000000000000E+00   0.00000000000000E+00   0.00000000000000E+00   0.00000000000000E+00   0.00000000000000E+00
      1.49666477084077E-18   2.00000000000000E-01   2.00000000000000E-01   0.00000000000000E+00   0.00000000000000E+00
      5.15038354947969E-12   6.48889537873068E-15   5.15687244485842E-12   1.57502255332802E-17   6.00000000000000E-02
      6.00000000000000E-02   0.00000000000000E+00   0.00000000000000E+00   0.00000000000000E+00   0.00000000000000E+00
      0.00000000000000E+00  -7.24648859865180E-18
      2.00000000000000E-01
      0.00000000000000E+00   0.00000000000000E+00   0.00000000000000E+00   0.00000000000000E+00  -1.36616571527200E-13
     -4.81075004292844E-12  -4.94736661445564E-12  -1.00455399510540E-17   8.00000000000000E-02   8.00000000000000E-02
      0.00000000000000E+00   0.00000000000000E+00   0.00000000000000E+00   0.00000000000000E+00   0.00000000000000E+00
      2.63355887406524E-18   2.00000000000000E-01   2.00000000000000E-01   0.00000000000000E+00   0.00000000000000E+00
      4.94090658776417E-12   6.46002669146732E-15   4.94736661445564E-12   1.57073638607695E-17   6.00000000000000E-02
      6.00000000000000E-02   0.00000000000000E+00   0.00000000000000E+00   0.00000000000000E+00   0.00000000000000E+00
      0.00000000000000E+00  -8.29538278378078E-18
      2.10000000000000E-01
      0.00000000000000E+00   0.00000000000000E+00   0.00000000000000E+00   0.00000000000000E+00  -1.37747725859331E-13
     -4.61974865760882E-12  -4.75749638346815E-12  -1.00906283822786E-17   8.40000000000000E-02   8.40000000000000E-02
      0.00000000000000E+00   0.00000000000000E+00   0.00000000000000E+00   0.00000000000000E+00   0.00000000000000E+00
      3.77042989314161E-18   2.00000000000000E-01   2.00000000000000E-01   0.00000000000000E+00   0.00000000000000E+00
      4.75106526855601E-12   6.43111491214376E-15   4.75749638346815E-12   1.56644985251405E-17   6.00000000000000E-02
      6.00000000000000E-02   0.00000000000000E+00   0.00000000000000E+00   0.00000000000000E+00   0.00000000000000E+00
      0.00000000000000E+00  -9.34430003600344E-18
      2.20000000000000E-01
      0.00000000000000E+00   0.00000000000000E+00   0.00000000000000E+00   0.00000000000000E+00  -1.38882674595314E-13
     -4.44692478385916E-12  -4.58580745845447E-12  -1.01356680834208E-17   8.80000000000000E-02   8.80000000000000E-02
      0.00000000000000E+00   0.00000000000000E+00   0.00000000000000E+00   0.00000000000000E+00   0.00000000000000E+00
      4.90727842575535E-18   2.00000000000000E-01   2.00000000000000E-01   0.00000000000000E+00   0.00000000000000E+00
      4.57940529358675E-12   6.40216486771637E-15   4.58580745845447E-12   1.56216294171983E-17   6.00000000000000E-02
      6.00000000000000E-02   0.00000000000000E+00   0.00000000000000E+00   0.00000000000000E+00   0.00000000000000E+00
      0.00000000000000E+00  -1.03932397595329E-17
      2.30000000000000E-01
      0.00000000000000E+00   0.00000000000000E+00   0.00000000000000E+00   0.00000000000000E+00  -1.40021382258671E-13
     -4.29093826296964E-12  -4.43095964522831E-12  -1.01806601134669E-17   9.20000000000000E-02   9.20000000000000E-02
      0.00000000000000E+00   0.00000000000000E+00   0.00000000000000E+00   0.00000000000000E+00   0.00000000000000E+00
      6.04410505595355E-18   2.00000000000000E-01   2.00000000000000E-01   0.00000000000000E+00   0.00000000000000E+00
      4.42458646424728E-12   6.37318098103623E-15   4.43095964522831E-12   1.55787564295488E-17   6.00000000000000E-02
      6.00000000000000E-02   0.00000000000000E+00   0.00000000000000E+00   0.00000000000000E+00   0.00000000000000E+00
      0.00000000000000E+00  -1.14422013720355E-17
      2.40000000000000E-01
      0.00000000000000E+00   0.00000000000000E+00   0.00000000000000E+00   0.00000000000000E+00  -1.41163813446784E-13
     -4.15055549148735E-12  -4.29171930493414E-12  -1.02256055067068E-17   9.60000000000000E-02   9.60000000000000E-02
      0.00000000000000E+00   0.00000000000000E+00   0.00000000000000E+00   0.00000000000000E+00   0.00000000000000E+00
      7.18091035457883E-18   2.00000000000000E-01   2.00000000000000E-01   0.00000000000000E+00   0.00000000000000E+00
      4.28537513695569E-12   6.34416797844735E-15   4.29171930493414E-12   1.55358794563423E-17   6.00000000000000E-02
      6.00000000000000E-02   0.00000000000000E+00   0.00000000000000E+00   0.00000000000000E+00   0.00000000000000E+00
      0.00000000000000E+00  -1.24911843042143E-17
      2.50000000000000E-01
      0.00000000000000E+00   0.00000000000000E+00   0.00000000000000E+00   0.00000000000000E+00  -1.42309932841395E-13
     -4.02464232646469E-12  -4.16695225930608E-12  -1.02705052733152E-17   1.00000000000000E-01   1.00000000000000E-01
      0.00000000000000E+00   0.00000000000000E+00   0.00000000000000E+00   0.00000000000000E+00   0.00000000000000E+00
      8.31769487968763E-18   2.00000000000000E-01   2.00000000000000E-01   0.00000000000000E+00   0.00000000000000E+00
      4.16063712963598E-12   6.31512967009842E-15   4.16695225930608E-12   1.54929983930334E-17   6.00000000000000E-02
      6.00000000000000E-02   0.00000000000000E+00   0.00000000000000E+00   0.00000000000000E+00   0.00000000000000E+00
      0.00000000000000E+00  -1.35401879994058E-17
      2.60000000000000E-01
      0.00000000000000E+00   0.00000000000000E+00   0.00000000000000E+00   0.00000000000000E+00  -1.43459705218689E-13
     -3.91215743099074E-12  -4.05561713620943E-12  -1.03153603999206E-17   1.04000000000000E-01   1.04000000000000E-01
      0.00000000000000E+00   0.00000000000000E+00   0.00000000000000E+00   0.00000000000000E+00   0.00000000000000E+00
      9.45445917695386E-18   2.00000000000000E-01   2.00000000000000E-01   0.00000000000000E+00   0.00000000000000E+00
      4.04933106660391E-12   6.28606960552055E-15   4.05561713620943E-12   1.54501131361575E-17   6.00000000000000E-02
      6.00000000000000E-02   0.00000000000000E+00   0.00000000000000E+00   0.00000000000000E+00   0.00000000000000E+00
      0.00000000000000E+00  -1.45892119131908E-17
      2.70000000000000E-01
      0.00000000000000E+00   0.00000000000000E+00   0.00000000000000E+00   0.00000000000000E+00  -1.44613095458939E-13
     -3.81214604531653E-12  -3.95675914077547E-12  -1.03601718501616E-17   1.08000000000000E-01   1.08000000000000E-01
      0.00000000000000E+00   0.00000000000000E+00   0.00000000000000E+00   0.00000000000000E+00   0.00000000000000E+00
      1.05912037800585E-17   2.00000000000000E-01   2.00000000000000E-01   0.00000000000000E+00   0.00000000000000E+00
      3.95050214943041E-12   6.25699134506049E-15   3.95675914077547E-12   1.54072235831202E-17   6.00000000000000E-02
      6.00000000000000E-02   0.00000000000000E+00   0.00000000000000E+00   0.00000000000000E+00   0.00000000000000E+00
      0.00000000000000E+00  -1.56382555130171E-17
      2.80000000000000E-01
      0.00000000000000E+00   0.00000000000000E+00   0.00000000000000E+00   0.00000000000000E+00  -1.45770068555754E-13
     -3.72373417112292E-12  -3.86950423967867E-12  -1.04049405652315E-17   1.12000000000000E-01   1.12000000000000E-01
      0.00000000000000E+00   0.00000000000000E+00   0.00000000000000E+00   0.00000000000000E+00   0.00000000000000E+00
      1.17279292110664E-17   2.00000000000000E-01   2.00000000000000E-01   0.00000000000000E+00   0.00000000000000E+00
      3.86327634168837E-12   6.22789799030018E-15   3.86950423967867E-12   1.53643296320000E-17   6.00000000000000E-02
      6.00000000000000E-02   0.00000000000000E+00   0.00000000000000E+00   0.00000000000000E+00   0.00000000000000E+00
      0.00000000000000E+00  -1.66873182778348E-17
      2.90000000000000E-01
      0.00000000000000E+00   0.00000000000000E+00   0.00000000000000E+00   0.00000000000000E+00  -1.46930589624977E-13
     -3.64612315871241E-12  -3.79305374833739E-12  -1.04496674644098E-17   1.16000000000000E-01   1.16000000000000E-01
      0.00000000000000E+00   0.00000000000000E+00   0.00000000000000E+00   0.00000000000000E+00   0.00000000000000E+00
      1.28646359807898E-17   2.00000000000000E-01   2.00000000000000E-01   0.00000000000000E+00   0.00000000000000E+00
      3.78685495588491E-12   6.19879245247613E-15   3.79305374833738E-12   1.53214311813633E-17   6.00000000000000E-02
      6.00000000000000E-02   0.00000000000000E+00   0.00000000000000E+00   0.00000000000000E+00   0.00000000000000E+00
      0.00000000000000E+00  -1.77363996977433E-17
      3.00000000000000E-01
      0.00000000000000E+00   0.00000000000000E+00   0.00000000000000E+00   0.00000000000000E+00  -1.48094623913233E-13
     -3.57858468494258E-12  -3.72667930885581E-12  -1.04943534455827E-17   1.20000000000000E-01   1.20000000000000E-01
      0.00000000000000E+00   0.00000000000000E+00   0.00000000000000E+00   0.00000000000000E+00   0.00000000000000E+00
      1.40013245891411E-17   2.00000000000000E-01   2.00000000000000E-01   0.00000000000000E+00   0.00000000000000E+00
      3.72050963133517E-12   6.16967752063885E-15   3.72667930885581E-12   1.52785281300897E-17   6.00000000000000E-02
      6.00000000000000E-02   0.00000000000000E+00   0.00000000000000E+00   0.00000000000000E+00   0.00000000000000E+00
      0.00000000000000E+00  -1.87854992736481E-17
      3.10000000000000E-01
      0.00000000000000E+00   0.00000000000000E+00   0.00000000000000E+00   0.00000000000000E+00  -1.49262136806184E-13
     -3.52045611099198E-12  -3.66971824779817E-12  -1.05389993857513E-17   1.24000000000000E-01   1.24000000000000E-01
      0.00000000000000E+00   0.00000000000000E+00   0.00000000000000E+00   0.00000000000000E+00   0.00000000000000E+00
      1.51379955254733E-17   2.00000000000000E-01   2.00000000000000E-01   0.00000000000000E+00   0.00000000000000E+00
      3.66357769224495E-12   6.14055555321443E-15   3.66971824779817E-12   1.52356203772074E-17   6.00000000000000E-02
      6.00000000000000E-02   0.00000000000000E+00   0.00000000000000E+00   0.00000000000000E+00   0.00000000000000E+00
      0.00000000000000E+00  -1.98346165169294E-17
      3.20000000000000E-01
      0.00000000000000E+00   0.00000000000000E+00   0.00000000000000E+00   0.00000000000000E+00  -1.50433093836500E-13
     -3.47113621107268E-12  -3.62156930490918E-12  -1.05836061415293E-17   1.28000000000000E-01   1.28000000000000E-01
      0.00000000000000E+00   0.00000000000000E+00   0.00000000000000E+00   0.00000000000000E+00   0.00000000000000E+00
      1.62746492689103E-17   2.00000000000000E-01   2.00000000000000E-01   0.00000000000000E+00   0.00000000000000E+00
      3.61545787583288E-12   6.11142907630121E-15   3.62156930490918E-12   1.51927078217385E-17   6.00000000000000E-02
      6.00000000000000E-02   0.00000000000000E+00   0.00000000000000E+00   0.00000000000000E+00   0.00000000000000E+00
      0.00000000000000E+00  -2.08837509491196E-17
      3.30000000000000E-01
      0.00000000000000E+00   0.00000000000000E+00   0.00000000000000E+00   0.00000000000000E+00  -1.51607460691542E-13
     -3.43008126029323E-12  -3.58168872098477E-12  -1.06281745496279E-17   1.32000000000000E-01   1.32000000000000E-01
      0.00000000000000E+00   0.00000000000000E+00   0.00000000000000E+00   0.00000000000000E+00   0.00000000000000E+00
      1.74112862886669E-17   2.00000000000000E-01   2.00000000000000E-01   0.00000000000000E+00   0.00000000000000E+00
      3.57560642093858E-12   6.08230004619950E-15   3.58168872098478E-12   1.51497903625515E-17   6.00000000000000E-02
      6.00000000000000E-02   0.00000000000000E+00   0.00000000000000E+00   0.00000000000000E+00   0.00000000000000E+00
      0.00000000000000E+00  -2.19329021015906E-17
      3.40000000000000E-01
      0.00000000000000E+00   0.00000000000000E+00   0.00000000000000E+00   0.00000000000000E+00  -1.52785203220857E-13
     -3.39680147562821E-12  -3.54958667884906E-12  -1.06727054273315E-17   1.36000000000000E-01   1.36000000000000E-01
      0.00000000000000E+00   0.00000000000000E+00   0.00000000000000E+00   0.00000000000000E+00   0.00000000000000E+00
      1.85479070443594E-17   2.00000000000000E-01   2.00000000000000E-01   0.00000000000000E+00   0.00000000000000E+00
      3.54353350822522E-12   6.05317062383976E-15   3.54958667884906E-12   1.51068678982223E-17   6.00000000000000E-02
      6.00000000000000E-02   0.00000000000000E+00   0.00000000000000E+00   0.00000000000000E+00   0.00000000000000E+00
      0.00000000000000E+00  -2.29820695152502E-17
      3.50000000000000E-01
      0.00000000000000E+00   0.00000000000000E+00   0.00000000000000E+00   0.00000000000000E+00  -1.53966287443415E-13
     -3.37085779892784E-12  -3.52482408637125E-12  -1.07171995729609E-17   1.40000000000000E-01   1.40000000000000E-01
      0.00000000000000E+00   0.00000000000000E+00   0.00000000000000E+00   0.00000000000000E+00   0.00000000000000E+00
      1.96845119863062E-17   2.00000000000000E-01   2.00000000000000E-01   0.00000000000000E+00   0.00000000000000E+00
      3.51880004379058E-12   6.02404258067397E-15   3.52482408637126E-12   1.50639403269018E-17   6.00000000000000E-02
      6.00000000000000E-02   0.00000000000000E+00   0.00000000000000E+00   0.00000000000000E+00   0.00000000000000E+00
      0.00000000000000E+00  -2.40312527402471E-17
      3.60000000000000E-01
      0.00000000000000E+00   0.00000000000000E+00   0.00000000000000E+00   0.00000000000000E+00  -1.55150679554666E-13
     -3.35185901686363E-12  -3.50700969641830E-12  -1.07616577663271E-17   1.44000000000000E-01   1.44000000000000E-01
      0.00000000000000E+00   0.00000000000000E+00   0.00000000000000E+00   0.00000000000000E+00   0.00000000000000E+00
      2.08211015558205E-17   2.00000000000000E-01   2.00000000000000E-01   0.00000000000000E+00   0.00000000000000E+00
      3.50101477874646E-12   5.99491767183573E-15   3.50700969641830E-12   1.50210075461905E-17   6.00000000000000E-02
      6.00000000000000E-02   0.00000000000000E+00   0.00000000000000E+00   0.00000000000000E+00   0.00000000000000E+00
      0.00000000000000E+00  -2.50804513356839E-17
      3.70000000000000E-01
      0.00000000000000E+00   0.00000000000000E+00   0.00000000000000E+00   0.00000000000000E+00  -1.56338345933402E-13