DF-ISE text

Info {
  version   = 1.0
  type      = xyplot
  datasets  = [
    "time"
    "source OuterVoltage" "source InnerVoltage" "source QuasiFermiPotential" "source DisplacementCurrent" "source eCurrent"
    "source hCurrent" "source TotalCurrent" "source Charge" "topGate OuterVoltage" "topGate InnerVoltage"
    "topGate QuasiFermiPotential" "topGate DisplacementCurrent" "topGate eCurrent" "topGate hCurrent" "topGate TotalCurrent"
    "topGate Charge" "drain OuterVoltage" "drain InnerVoltage" "drain QuasiFermiPotential" "drain DisplacementCurrent"
    "drain eCurrent" "drain hCurrent" "drain TotalCurrent" "drain Charge" "bottomGate OuterVoltage"
    "bottomGate InnerVoltage" "bottomGate QuasiFermiPotential" "bottomGate DisplacementCurrent" "bottomGate eCurrent" "bottomGate hCurrent"
    "bottomGate TotalCurrent" "bottomGate Charge" ]
  functions = [
    Time
    OuterVoltage InnerVoltage QuasiFermiPotential DisplacementCurrent eCurrent
    hCurrent TotalCurrent Charge OuterVoltage InnerVoltage
    QuasiFermiPotential DisplacementCurrent eCurrent hCurrent TotalCurrent
    Charge OuterVoltage InnerVoltage QuasiFermiPotential DisplacementCurrent
    eCurrent hCurrent TotalCurrent Charge OuterVoltage
    InnerVoltage QuasiFermiPotential DisplacementCurrent eCurrent hCurrent
    TotalCurrent Charge ]
}

Data {
      1.00000000000000E-02
      0.00000000000000E+00   0.00000000000000E+00   0.00000000000000E+00   0.00000000000000E+00  -1.61185638749352E-13
     -2.84842734288661E-10  -2.85003919927410E-10  -1.09835155758065E-17   4.00000000000000E-03   4.00000000000000E-03
      0.00000000000000E+00   0.00000000000000E+00   0.00000000000000E+00   0.00000000000000E+00   0.00000000000000E+00
     -6.27463656704478E-17   3.70000000000000E-01   3.70000000000000E-01   0.00000000000000E+00   0.00000000000000E+00
      2.84997205782722E-10   6.71414468898945E-15   2.85003919927411E-10   1.84436824130287E-17   2.20000000000000E-01
      2.20000000000000E-01   0.00000000000000E+00   0.00000000000000E+00   0.00000000000000E+00   0.00000000000000E+00
      0.00000000000000E+00   5.52861988332255E-17
      2.00000000000000E-02
      0.00000000000000E+00   0.00000000000000E+00   0.00000000000000E+00   0.00000000000000E+00  -1.62390564649818E-13
     -2.67548458180864E-10  -2.67710848745514E-10  -1.10277734552766E-17   8.00000000000000E-03   8.00000000000000E-03
      0.00000000000000E+00   0.00000000000000E+00   0.00000000000000E+00   0.00000000000000E+00   0.00000000000000E+00
     -6.16100005170995E-17   3.70000000000000E-01   3.70000000000000E-01   0.00000000000000E+00   0.00000000000000E+00
      2.67704038880428E-10   6.80986508759797E-15   2.67710848745515E-10   1.84009983826475E-17   2.20000000000000E-01
      2.20000000000000E-01   0.00000000000000E+00   0.00000000000000E+00   0.00000000000000E+00   0.00000000000000E+00
      0.00000000000000E+00   5.42367755897286E-17
      3.00000000000000E-02
      0.00000000000000E+00   0.00000000000000E+00   0.00000000000000E+00   0.00000000000000E+00  -1.63598492736654E-13
     -2.51201553840809E-10  -2.51365152333546E-10  -1.10720003557537E-17   1.20000000000000E-02   1.20000000000000E-02
      0.00000000000000E+00   0.00000000000000E+00   0.00000000000000E+00   0.00000000000000E+00   0.00000000000000E+00
     -6.04736500947278E-17   3.70000000000000E-01   3.70000000000000E-01   0.00000000000000E+00   0.00000000000000E+00
      2.51358255823107E-10   6.89651043908996E-15   2.51365152333546E-10   1.83583128178623E-17   2.20000000000000E-01
      2.20000000000000E-01   0.00000000000000E+00   0.00000000000000E+00   0.00000000000000E+00   0.00000000000000E+00
      0.00000000000000E+00   5.31873376326192E-17
      4.00000000000000E-02
      0.00000000000000E+00   0.00000000000000E+00   0.00000000000000E+00   0.00000000000000E+00  -1.64809399194700E-13
     -2.35757524325633E-10  -2.35922333724827E-10  -1.11161969243502E-17   1.60000000000000E-02   1.60000000000000E-02
      0.00000000000000E+00   0.00000000000000E+00   0.00000000000000E+00   0.00000000000000E+00   0.00000000000000E+00
     -5.93373140613925E-17   3.70000000000000E-01   3.70000000000000E-01   0.00000000000000E+00   0.00000000000000E+00
      2.35915359025784E-10   6.97469904376313E-15   2.35922333724828E-10   1.83156256833003E-17   2.20000000000000E-01
      2.20000000000000E-01   0.00000000000000E+00   0.00000000000000E+00   0.00000000000000E+00   0.00000000000000E+00
      0.00000000000000E+00   5.21378853024423E-17
      5.00000000000000E-02
      0.00000000000000E+00   0.00000000000000E+00   0.00000000000000E+00   0.00000000000000E+00  -1.66023259635981E-13
     -2.21173545618339E-10  -2.21339568877975E-10  -1.11603637932841E-17   2.00000000000000E-02   2.00000000000000E-02
      0.00000000000000E+00   0.00000000000000E+00   0.00000000000000E+00   0.00000000000000E+00   0.00000000000000E+00
     -5.82009920829353E-17   3.70000000000000E-01   3.70000000000000E-01   0.00000000000000E+00   0.00000000000000E+00
      2.21332523867841E-10   7.04501013422010E-15   2.21339568877975E-10   1.82729369441481E-17   2.20000000000000E-01
      2.20000000000000E-01   0.00000000000000E+00   0.00000000000000E+00   0.00000000000000E+00   0.00000000000000E+00
      0.00000000000000E+00   5.10884189320714E-17
      6.00000000000000E-02
      0.00000000000000E+00   0.00000000000000E+00   0.00000000000000E+00   0.00000000000000E+00  -1.67240049181913E-13
     -2.07408423249624E-10  -2.07575663298806E-10  -1.12045015802389E-17   2.40000000000000E-02   2.40000000000000E-02
      0.00000000000000E+00   0.00000000000000E+00   0.00000000000000E+00   0.00000000000000E+00   0.00000000000000E+00
     -5.70646838327586E-17   3.70000000000000E-01   3.70000000000000E-01   0.00000000000000E+00   0.00000000000000E+00
      2.07568555312621E-10   7.10798618500836E-15   2.07575663298806E-10   1.82302465660753E-17   2.20000000000000E-01
      2.20000000000000E-01   0.00000000000000E+00   0.00000000000000E+00   0.00000000000000E+00   0.00000000000000E+00
      0.00000000000000E+00   5.00389388469221E-17
      7.00000000000000E-02
      0.00000000000000E+00   0.00000000000000E+00   0.00000000000000E+00   0.00000000000000E+00  -1.68459742537632E-13
     -1.94422549350999E-10  -1.94591009093537E-10  -1.12486108887130E-17   2.80000000000000E-02   2.80000000000000E-02
      0.00000000000000E+00   0.00000000000000E+00   0.00000000000000E+00   0.00000000000000E+00   0.00000000000000E+00
     -5.59283889916099E-17   3.70000000000000E-01   3.70000000000000E-01   0.00000000000000E+00   0.00000000000000E+00
      1.94583844958404E-10   7.16413513309878E-15   1.94591009093537E-10   1.81875545151637E-17   2.20000000000000E-01
      2.20000000000000E-01   0.00000000000000E+00   0.00000000000000E+00   0.00000000000000E+00   0.00000000000000E+00
      0.00000000000000E+00   4.89894453651592E-17
      8.00000000000000E-02
      0.00000000000000E+00   0.00000000000000E+00   0.00000000000000E+00   0.00000000000000E+00  -1.69682314059265E-13
     -1.82177860150589E-10  -1.82347542464648E-10  -1.12926923083626E-17   3.20000000000000E-02   3.20000000000000E-02
      0.00000000000000E+00   0.00000000000000E+00   0.00000000000000E+00   0.00000000000000E+00   0.00000000000000E+00
     -5.47921072473740E-17   3.70000000000000E-01   3.70000000000000E-01   0.00000000000000E+00   0.00000000000000E+00
      1.82340328532528E-10   7.21393212012672E-15   1.82347542464648E-10   1.81448607578403E-17   2.20000000000000E-01
      2.20000000000000E-01   0.00000000000000E+00   0.00000000000000E+00   0.00000000000000E+00   0.00000000000000E+00
      0.00000000000000E+00   4.79399387978962E-17
      9.00000000000000E-02
      0.00000000000000E+00   0.00000000000000E+00   0.00000000000000E+00   0.00000000000000E+00  -1.70907737814727E-13
     -1.70637793924510E-10  -1.70808701662325E-10  -1.13367464153346E-17   3.60000000000000E-02   3.60000000000000E-02
      0.00000000000000E+00   0.00000000000000E+00   0.00000000000000E+00   0.00000000000000E+00   0.00000000000000E+00
     -5.36558382948717E-17   3.70000000000000E-01   3.70000000000000E-01   0.00000000000000E+00   0.00000000000000E+00
      1.70801443840592E-10   7.25782173344620E-15   1.70808701662325E-10   1.81021652608157E-17   2.20000000000000E-01
      2.20000000000000E-01   0.00000000000000E+00   0.00000000000000E+00   0.00000000000000E+00   0.00000000000000E+00
      0.00000000000000E+00   4.68904194493906E-17
      1.00000000000000E-01
      0.00000000000000E+00   0.00000000000000E+00   0.00000000000000E+00   0.00000000000000E+00  -1.72135987638649E-13
     -1.59767249414612E-10  -1.59939385402250E-10  -1.13807737725929E-17   4.00000000000000E-02   4.00000000000000E-02
      0.00000000000000E+00   0.00000000000000E+00   0.00000000000000E+00   0.00000000000000E+00   0.00000000000000E+00
     -5.25195818356649E-17   3.70000000000000E-01   3.70000000000000E-01   0.00000000000000E+00   0.00000000000000E+00
      1.59932089182741E-10   7.29621950915789E-15   1.59939385402250E-10   1.80594679910258E-17   2.20000000000000E-01
      2.20000000000000E-01   0.00000000000000E+00   0.00000000000000E+00   0.00000000000000E+00   0.00000000000000E+00
      0.00000000000000E+00   4.58408876172319E-17
      1.10000000000000E-01
      0.00000000000000E+00   0.00000000000000E+00   0.00000000000000E+00   0.00000000000000E+00  -1.73367037181993E-13
     -1.49532544725850E-10  -1.49705911763032E-10  -1.14247749302362E-17   4.40000000000000E-02   4.40000000000000E-02
      0.00000000000000E+00   0.00000000000000E+00   0.00000000000000E+00   0.00000000000000E+00   0.00000000000000E+00
     -5.13833375778674E-17   3.70000000000000E-01   3.70000000000000E-01   0.00000000000000E+00   0.00000000000000E+00
      1.49698582249179E-10   7.32951385315924E-15   1.49705911763032E-10   1.80167689155782E-17   2.20000000000000E-01
      2.20000000000000E-01   0.00000000000000E+00   0.00000000000000E+00   0.00000000000000E+00   0.00000000000000E+00
      0.00000000000000E+00   4.47913435925254E-17
      1.20000000000000E-01
      0.00000000000000E+00   0.00000000000000E+00   0.00000000000000E+00   0.00000000000000E+00  -1.74600859956867E-13
     -1.39901376714565E-10  -1.40075977574522E-10  -1.14687504258083E-17   4.80000000000000E-02   4.80000000000000E-02
      0.00000000000000E+00   0.00000000000000E+00   0.00000000000000E+00   0.00000000000000E+00   0.00000000000000E+00
     -5.02471052359619E-17   3.70000000000000E-01   3.70000000000000E-01   0.00000000000000E+00   0.00000000000000E+00
      1.40068619507026E-10   7.35806749640536E-15   1.40075977574522E-10   1.79740680017009E-17   2.20000000000000E-01
      2.20000000000000E-01   0.00000000000000E+00   0.00000000000000E+00   0.00000000000000E+00   0.00000000000000E+00
      0.00000000000000E+00   4.37417876600693E-17
      1.30000000000000E-01
      0.00000000000000E+00   0.00000000000000E+00   0.00000000000000E+00   0.00000000000000E+00  -1.75837429376928E-13
     -1.30842780880450E-10  -1.31018618309827E-10  -1.15127007846007E-17   5.20000000000000E-02   5.20000000000000E-02
      0.00000000000000E+00   0.00000000000000E+00   0.00000000000000E+00   0.00000000000000E+00   0.00000000000000E+00
     -4.91108845306223E-17   3.70000000000000E-01   3.70000000000000E-01   0.00000000000000E+00   0.00000000000000E+00
      1.31011236090693E-10   7.38221913419722E-15   1.31018618309827E-10   1.79313652166951E-17   2.20000000000000E-01
      2.20000000000000E-01   0.00000000000000E+00   0.00000000000000E+00   0.00000000000000E+00   0.00000000000000E+00
      0.00000000000000E+00   4.26922200985279E-17
      1.40000000000000E-01
      0.00000000000000E+00   0.00000000000000E+00   0.00000000000000E+00   0.00000000000000E+00  -1.77076718793845E-13
     -1.22327091774028E-10  -1.22504168492822E-10  -1.15566265199482E-17   5.60000000000000E-02   5.60000000000000E-02
      0.00000000000000E+00   0.00000000000000E+00   0.00000000000000E+00   0.00000000000000E+00   0.00000000000000E+00
     -4.79746751885413E-17   3.70000000000000E-01   3.70000000000000E-01   0.00000000000000E+00   0.00000000000000E+00
      1.22496766207898E-10   7.40228492349854E-15   1.22504168492822E-10   1.78886605278903E-17   2.20000000000000E-01
      2.20000000000000E-01   0.00000000000000E+00   0.00000000000000E+00   0.00000000000000E+00   0.00000000000000E+00
      0.00000000000000E+00   4.16426411805992E-17
      1.50000000000000E-01
      0.00000000000000E+00   0.00000000000000E+00   0.00000000000000E+00   0.00000000000000E+00  -1.78318701530135E-13
     -1.14325903931565E-10  -1.14504222633095E-10  -1.16005281335172E-17   6.00000000000000E-02   6.00000000000000E-02
      0.00000000000000E+00   0.00000000000000E+00   0.00000000000000E+00   0.00000000000000E+00   0.00000000000000E+00
     -4.68384769422633E-17   3.70000000000000E-01   3.70000000000000E-01   0.00000000000000E+00   0.00000000000000E+00
      1.14496804073389E-10   7.41855970574081E-15   1.14504222633095E-10   1.78459539026024E-17   2.20000000000000E-01
      2.20000000000000E-01   0.00000000000000E+00   0.00000000000000E+00   0.00000000000000E+00   0.00000000000000E+00
      0.00000000000000E+00   4.05930511731781E-17
      1.60000000000000E-01
      0.00000000000000E+00   0.00000000000000E+00   0.00000000000000E+00   0.00000000000000E+00  -1.79563350908748E-13
     -1.06812033349893E-10  -1.06991596700802E-10  -1.16444061155867E-17   6.40000000000000E-02   6.40000000000000E-02
      0.00000000000000E+00   0.00000000000000E+00   0.00000000000000E+00   0.00000000000000E+00   0.00000000000000E+00
     -4.57022895300218E-17   3.70000000000000E-01   3.70000000000000E-01   0.00000000000000E+00   0.00000000000000E+00
      1.06984165382337E-10   7.43131846479786E-15   1.06991596700802E-10   1.78032453080937E-17   2.20000000000000E-01
      2.20000000000000E-01   0.00000000000000E+00   0.00000000000000E+00   0.00000000000000E+00   0.00000000000000E+00
      0.00000000000000E+00   3.95434503375148E-17
      1.70000000000000E-01
      0.00000000000000E+00   0.00000000000000E+00   0.00000000000000E+00   0.00000000000000E+00  -1.80810640279679E-13
     -9.97594795124817E-11  -9.99402901527614E-11  -1.16882609453232E-17   6.80000000000000E-02   6.80000000000000E-02
      0.00000000000000E+00   0.00000000000000E+00   0.00000000000000E+00   0.00000000000000E+00   0.00000000000000E+00
     -4.45661126955818E-17   3.70000000000000E-01   3.70000000000000E-01   0.00000000000000E+00   0.00000000000000E+00
      9.99328493352595E-11   7.44081750199010E-15   9.99402901527615E-11   1.77605347115358E-17   2.20000000000000E-01
      2.20000000000000E-01   0.00000000000000E+00   0.00000000000000E+00   0.00000000000000E+00   0.00000000000000E+00
      0.00000000000000E+00   3.84938389293692E-17
      1.80000000000000E-01
      0.00000000000000E+00   0.00000000000000E+00   0.00000000000000E+00   0.00000000000000E+00  -1.82060543043894E-13
     -9.31433879786627E-11  -9.33254485217066E-11  -1.17320930910480E-17   7.20000000000000E-02   7.20000000000000E-02
      0.00000000000000E+00   0.00000000000000E+00   0.00000000000000E+00   0.00000000000000E+00   0.00000000000000E+00
     -4.34299461880867E-17   3.70000000000000E-01   3.70000000000000E-01   0.00000000000000E+00   0.00000000000000E+00
      9.33180012261471E-11   7.44729555956497E-15   9.33254485217066E-11   1.77178220799739E-17   2.20000000000000E-01
      2.20000000000000E-01   0.00000000000000E+00   0.00000000000000E+00   0.00000000000000E+00   0.00000000000000E+00
      0.00000000000000E+00   3.74442171991607E-17
      1.90000000000000E-01
      0.00000000000000E+00   0.00000000000000E+00   0.00000000000000E+00   0.00000000000000E+00  -1.83313032674821E-13
     -8.69400135476132E-11  -8.71233265802880E-11  -1.17759030104986E-17   7.60000000000000E-02   7.60000000000000E-02
      0.00000000000000E+00   0.00000000000000E+00   0.00000000000000E+00   0.00000000000000E+00   0.00000000000000E+00
     -4.22937897619090E-17   3.70000000000000E-01   3.70000000000000E-01   0.00000000000000E+00   0.00000000000000E+00
      8.71158756052991E-11   7.45097498890339E-15   8.71233265802880E-11   1.76751073802933E-17   2.20000000000000E-01
      2.20000000000000E-01   0.00000000000000E+00   0.00000000000000E+00   0.00000000000000E+00   0.00000000000000E+00
      0.00000000000000E+00   3.63945853921143E-17
      2.00000000000000E-01
      0.00000000000000E+00   0.00000000000000E+00   0.00000000000000E+00   0.00000000000000E+00  -1.84568082737624E-13
     -8.11266840081551E-11  -8.13112520908928E-11  -1.18196911510836E-17   8.00000000000000E-02   8.00000000000000E-02
      0.00000000000000E+00   0.00000000000000E+00   0.00000000000000E+00   0.00000000000000E+00   0.00000000000000E+00
     -4.11576431765061E-17   3.70000000000000E-01   3.70000000000000E-01   0.00000000000000E+00   0.00000000000000E+00
      8.13038000281469E-11   7.45206274592159E-15   8.13112520908928E-11   1.76323905791873E-17   2.20000000000000E-01
      2.20000000000000E-01   0.00000000000000E+00   0.00000000000000E+00   0.00000000000000E+00   0.00000000000000E+00
      0.00000000000000E+00   3.53449437484024E-17
      2.10000000000000E-01
      0.00000000000000E+00   0.00000000000000E+00   0.00000000000000E+00   0.00000000000000E+00  -1.85825666906465E-13
     -7.56817644856123E-11  -7.58675901525188E-11  -1.18634579501310E-17   8.40000000000000E-02   8.40000000000000E-02
      0.00000000000000E+00   0.00000000000000E+00   0.00000000000000E+00   0.00000000000000E+00   0.00000000000000E+00
     -4.00215061962790E-17   3.70000000000000E-01   3.70000000000000E-01   0.00000000000000E+00   0.00000000000000E+00
      7.58601394010943E-11   7.45075142443495E-15   7.58675901525188E-11   1.75896716431269E-17   2.20000000000000E-01
      2.20000000000000E-01   0.00000000000000E+00   0.00000000000000E+00   0.00000000000000E+00   0.00000000000000E+00
      0.00000000000000E+00   3.42952925032831E-17
      2.20000000000000E-01
      0.00000000000000E+00   0.00000000000000E+00   0.00000000000000E+00   0.00000000000000E+00  -1.87085758979961E-13
     -7.05846223962664E-11  -7.07717081552464E-11  -1.19072038351311E-17   8.80000000000000E-02   8.80000000000000E-02
      0.00000000000000E+00   0.00000000000000E+00   0.00000000000000E+00   0.00000000000000E+00   0.00000000000000E+00
     -3.88853785904356E-17   3.70000000000000E-01   3.70000000000000E-01   0.00000000000000E+00   0.00000000000000E+00
      7.07642609351511E-11   7.44722009528752E-15   7.07717081552464E-11   1.75469505383316E-17   2.20000000000000E-01
      2.20000000000000E-01   0.00000000000000E+00   0.00000000000000E+00   0.00000000000000E+00   0.00000000000000E+00
      0.00000000000000E+00   3.32456318872351E-17
      2.30000000000000E-01
      0.00000000000000E+00   0.00000000000000E+00   0.00000000000000E+00   0.00000000000000E+00  -1.88348332894985E-13
     -6.58155930201631E-11  -6.60039413530581E-11  -1.19509292239729E-17   9.20000000000000E-02   9.20000000000000E-02
      0.00000000000000E+00   0.00000000000000E+00   0.00000000000000E+00   0.00000000000000E+00   0.00000000000000E+00
     -3.77492601328575E-17   3.70000000000000E-01   3.70000000000000E-01   0.00000000000000E+00   0.00000000000000E+00
      6.59964997178026E-11   7.44163525543159E-15   6.60039413530581E-11   1.75042272307420E-17   2.20000000000000E-01
      2.20000000000000E-01   0.00000000000000E+00   0.00000000000000E+00   0.00000000000000E+00   0.00000000000000E+00
      0.00000000000000E+00   3.21959621260884E-17
      2.40000000000000E-01
      0.00000000000000E+00   0.00000000000000E+00   0.00000000000000E+00   0.00000000000000E+00  -1.89613362738968E-13
     -6.13559457021658E-11  -6.15455590649048E-11  -1.19946345251747E-17   9.60000000000000E-02   9.60000000000000E-02
      0.00000000000000E+00   0.00000000000000E+00   0.00000000000000E+00   0.00000000000000E+00   0.00000000000000E+00
     -3.66131506019701E-17   3.70000000000000E-01   3.70000000000000E-01   0.00000000000000E+00   0.00000000000000E+00
      6.15381249132771E-11   7.43415162773859E-15   6.15455590649048E-11   1.74615016859924E-17   2.20000000000000E-01
      2.20000000000000E-01   0.00000000000000E+00   0.00000000000000E+00   0.00000000000000E+00   0.00000000000000E+00
      0.00000000000000E+00   3.11462834411524E-17
      2.50000000000000E-01
      0.00000000000000E+00   0.00000000000000E+00   0.00000000000000E+00   0.00000000000000E+00  -1.90880822760835E-13
     -5.71878506911404E-11  -5.73787315139012E-11  -1.20383201381092E-17   1.00000000000000E-01   1.00000000000000E-01
      0.00000000000000E+00   0.00000000000000E+00   0.00000000000000E+00   0.00000000000000E+00   0.00000000000000E+00
     -3.54770497806167E-17   3.70000000000000E-01   3.70000000000000E-01   0.00000000000000E+00   0.00000000000000E+00
      5.73713066009934E-11   7.42491290787196E-15   5.73787315139013E-11   1.74187738693860E-17   2.20000000000000E-01
      2.20000000000000E-01   0.00000000000000E+00   0.00000000000000E+00   0.00000000000000E+00   0.00000000000000E+00
      0.00000000000000E+00   3.00965960493399E-17
      2.60000000000000E-01
      0.00000000000000E+00   0.00000000000000E+00   0.00000000000000E+00   0.00000000000000E+00  -1.92150687380739E-13
     -5.32943466267719E-11  -5.34864973141526E-11  -1.20819864532233E-17   1.04000000000000E-01   1.04000000000000E-01
      0.00000000000000E+00   0.00000000000000E+00   0.00000000000000E+00   0.00000000000000E+00   0.00000000000000E+00
     -3.43409574559349E-17   3.70000000000000E-01   3.70000000000000E-01   0.00000000000000E+00   0.00000000000000E+00
      5.34790832616264E-11   7.41405252629329E-15   5.34864973141527E-11   1.73760437458694E-17   2.20000000000000E-01
      2.20000000000000E-01   0.00000000000000E+00   0.00000000000000E+00   0.00000000000000E+00   0.00000000000000E+00
      0.00000000000000E+00   2.90469001632889E-17
      2.70000000000000E-01
      0.00000000000000E+00   0.00000000000000E+00   0.00000000000000E+00   0.00000000000000E+00  -1.93422931198644E-13
     -4.96593086829497E-11  -4.98527316141484E-11  -1.21256338522521E-17   1.08000000000000E-01   1.08000000000000E-01
      0.00000000000000E+00   0.00000000000000E+00   0.00000000000000E+00   0.00000000000000E+00   0.00000000000000E+00
     -3.32048734192377E-17   3.70000000000000E-01   3.70000000000000E-01   0.00000000000000E+00   0.00000000000000E+00
      4.98453299198370E-11   7.40169431141963E-15   4.98527316141484E-11   1.73333112800093E-17   2.20000000000000E-01
      2.20000000000000E-01   0.00000000000000E+00   0.00000000000000E+00   0.00000000000000E+00   0.00000000000000E+00
      0.00000000000000E+00   2.79971959914805E-17
      2.80000000000000E-01
      0.00000000000000E+00   0.00000000000000E+00   0.00000000000000E+00   0.00000000000000E+00  -1.94697529001916E-13
     -4.62674173764633E-11  -4.64621149054652E-11  -1.21692627084275E-17   1.12000000000000E-01   1.12000000000000E-01
      0.00000000000000E+00   0.00000000000000E+00   0.00000000000000E+00   0.00000000000000E+00   0.00000000000000E+00
     -3.20687974658958E-17   3.70000000000000E-01   3.70000000000000E-01   0.00000000000000E+00   0.00000000000000E+00
      4.64547269523088E-11   7.38795315637737E-15   4.64621149054651E-11   1.72905764359692E-17   2.20000000000000E-01
      2.20000000000000E-01   0.00000000000000E+00   0.00000000000000E+00   0.00000000000000E+00   0.00000000000000E+00
      0.00000000000000E+00   2.69474837383541E-17
      2.90000000000000E-01
      0.00000000000000E+00   0.00000000000000E+00   0.00000000000000E+00   0.00000000000000E+00  -1.95974455771999E-13
     -4.31041280491335E-11  -4.33001025049055E-11  -1.22128733866822E-17   1.16000000000000E-01   1.16000000000000E-01
      0.00000000000000E+00   0.00000000000000E+00   0.00000000000000E+00   0.00000000000000E+00   0.00000000000000E+00
     -3.09327293952249E-17   3.70000000000000E-01   3.70000000000000E-01   0.00000000000000E+00   0.00000000000000E+00
      4.32927295693260E-11   7.37293557958979E-15   4.33001025049055E-11   1.72478391774868E-17   2.20000000000000E-01
      2.20000000000000E-01   0.00000000000000E+00   0.00000000000000E+00   0.00000000000000E+00   0.00000000000000E+00
      0.00000000000000E+00   2.58977636044203E-17
      3.00000000000000E-01
      0.00000000000000E+00   0.00000000000000E+00   0.00000000000000E+00   0.00000000000000E+00  -1.97253686690232E-13
     -4.01556410313417E-11  -4.03528947180319E-11  -1.22564662438484E-17   1.20000000000000E-01   1.20000000000000E-01
      0.00000000000000E+00   0.00000000000000E+00   0.00000000000000E+00   0.00000000000000E+00   0.00000000000000E+00
     -2.97966690103738E-17   3.70000000000000E-01   3.70000000000000E-01   0.00000000000000E+00   0.00000000000000E+00
      4.03455379776863E-11   7.35674034559662E-15   4.03528947180319E-11   1.72050994678523E-17   2.20000000000000E-01
      2.20000000000000E-01   0.00000000000000E+00   0.00000000000000E+00   0.00000000000000E+00   0.00000000000000E+00
      0.00000000000000E+00   2.48480357863700E-17
      3.10000000000000E-01
      0.00000000000000E+00   0.00000000000000E+00   0.00000000000000E+00   0.00000000000000E+00  -1.98535197142945E-13
     -3.74088724941246E-11  -3.76074076912675E-11  -1.23000416288515E-17   1.24000000000000E-01   1.24000000000000E-01
      0.00000000000000E+00   0.00000000000000E+00   0.00000000000000E+00   0.00000000000000E+00   0.00000000000000E+00
     -2.86606161182171E-17   3.70000000000000E-01   3.70000000000000E-01   0.00000000000000E+00   0.00000000000000E+00
      3.76000682323086E-11   7.33945895899152E-15   3.76074076912676E-11   1.71623572698868E-17   2.20000000000000E-01
      2.20000000000000E-01   0.00000000000000E+00   0.00000000000000E+00   0.00000000000000E+00   0.00000000000000E+00
      0.00000000000000E+00   2.37983004771818E-17
      3.20000000000000E-01
      0.00000000000000E+00   0.00000000000000E+00   0.00000000000000E+00   0.00000000000000E+00  -1.99818962725839E-13
     -3.48514259969039E-11  -3.50512449596298E-11  -1.23435998828990E-17   1.28000000000000E-01   1.28000000000000E-01
      0.00000000000000E+00   0.00000000000000E+00   0.00000000000000E+00   0.00000000000000E+00   0.00000000000000E+00
     -2.75245705292493E-17   3.70000000000000E-01   3.70000000000000E-01   0.00000000000000E+00   0.00000000000000E+00
      3.50439237834456E-11   7.32117618416370E-15   3.50512449596298E-11   1.71196125459218E-17   2.20000000000000E-01
      2.20000000000000E-01   0.00000000000000E+00   0.00000000000000E+00   0.00000000000000E+00   0.00000000000000E+00
      0.00000000000000E+00   2.27485578662264E-17
      3.30000000000000E-01
      0.00000000000000E+00   0.00000000000000E+00   0.00000000000000E+00   0.00000000000000E+00  -2.01104959247771E-13
     -3.24715647372016E-11  -3.26726696964494E-11  -1.23871413396647E-17   1.32000000000000E-01   1.32000000000000E-01
      0.00000000000000E+00   0.00000000000000E+00   0.00000000000000E+00   0.00000000000000E+00   0.00000000000000E+00
     -2.63885320574819E-17   3.70000000000000E-01   3.70000000000000E-01   0.00000000000000E+00   0.00000000000000E+00
      3.26653677259480E-11   7.30197050135879E-15   3.26726696964494E-11   1.70768652577781E-17   2.20000000000000E-01
      2.20000000000000E-01   0.00000000000000E+00   0.00000000000000E+00   0.00000000000000E+00   0.00000000000000E+00
      0.00000000000000E+00   2.16988081393684E-17
      3.40000000000000E-01
      0.00000000000000E+00   0.00000000000000E+00   0.00000000000000E+00   0.00000000000000E+00  -2.02393162733944E-13
     -3.02581845083834E-11  -3.04605776711173E-11  -1.24306663254689E-17   1.36000000000000E-01   1.36000000000000E-01
      0.00000000000000E+00   0.00000000000000E+00   0.00000000000000E+00   0.00000000000000E+00   0.00000000000000E+00
     -2.52525005203433E-17   3.70000000000000E-01   3.70000000000000E-01   0.00000000000000E+00   0.00000000000000E+00
      3.04532957565695E-11   7.28191454788094E-15   3.04605776711173E-11   1.70341153667464E-17   2.20000000000000E-01
      2.20000000000000E-01   0.00000000000000E+00   0.00000000000000E+00   0.00000000000000E+00   0.00000000000000E+00
      0.00000000000000E+00   2.06490514790657E-17
      3.50000000000000E-01
      0.00000000000000E+00   0.00000000000000E+00   0.00000000000000E+00   0.00000000000000E+00  -2.03683549428615E-13
     -2.82007873709405E-11  -2.84044709203691E-11  -1.24741751594533E-17   1.40000000000000E-01   1.40000000000000E-01
      0.00000000000000E+00   0.00000000000000E+00   0.00000000000000E+00   0.00000000000000E+00   0.00000000000000E+00
     -2.41164757385805E-17   3.70000000000000E-01   3.70000000000000E-01   0.00000000000000E+00   0.00000000000000E+00
      2.83972098448342E-11   7.26107553491770E-15   2.84044709203691E-11   1.69913628335667E-17   2.20000000000000E-01
      2.20000000000000E-01   0.00000000000000E+00   0.00000000000000E+00   0.00000000000000E+00   0.00000000000000E+00
      0.00000000000000E+00   1.95992880644671E-17
      3.60000000000000E-01
      0.00000000000000E+00   0.00000000000000E+00   0.00000000000000E+00   0.00000000000000E+00  -2.04976095797318E-13
     -2.62894560423512E-11  -2.64944321381485E-11  -1.25176681537521E-17   1.44000000000000E-01   1.44000000000000E-01
      0.00000000000000E+00   0.00000000000000E+00   0.00000000000000E+00   0.00000000000000E+00   0.00000000000000E+00
     -2.29804575361638E-17   3.70000000000000E-01   3.70000000000000E-01   0.00000000000000E+00   0.00000000000000E+00
      2.64871926225211E-11   7.23951562742248E-15   2.64944321381485E-11   1.69486076184091E-17   2.20000000000000E-01
      2.20000000000000E-01   0.00000000000000E+00   0.00000000000000E+00   0.00000000000000E+00   0.00000000000000E+00
      0.00000000000000E+00   1.85495180715068E-17
      3.70000000000000E-01
      0.00000000000000E+00   0.00000000000000E+00   0.00000000000000E+00   0.00000000000000E+00  -2.06270778528670E-13