DF-ISE text

Info {
  version   = 1.0
  type      = xyplot
  datasets  = [
    "time"
    "source OuterVoltage" "source InnerVoltage" "source QuasiFermiPotential" "source DisplacementCurrent" "source eCurrent"
    "source hCurrent" "source TotalCurrent" "source Charge" "topGate OuterVoltage" "topGate InnerVoltage"
    "topGate QuasiFermiPotential" "topGate DisplacementCurrent" "topGate eCurrent" "topGate hCurrent" "topGate TotalCurrent"
    "topGate Charge" "drain OuterVoltage" "drain InnerVoltage" "drain QuasiFermiPotential" "drain DisplacementCurrent"
    "drain eCurrent" "drain hCurrent" "drain TotalCurrent" "drain Charge" "bottomGate OuterVoltage"
    "bottomGate InnerVoltage" "bottomGate QuasiFermiPotential" "bottomGate DisplacementCurrent" "bottomGate eCurrent" "bottomGate hCurrent"
    "bottomGate TotalCurrent" "bottomGate Charge" ]
  functions = [
    Time
    OuterVoltage InnerVoltage QuasiFermiPotential DisplacementCurrent eCurrent
    hCurrent TotalCurrent Charge OuterVoltage InnerVoltage
    QuasiFermiPotential DisplacementCurrent eCurrent hCurrent TotalCurrent
    Charge OuterVoltage InnerVoltage QuasiFermiPotential DisplacementCurrent
    eCurrent hCurrent TotalCurrent Charge OuterVoltage
    InnerVoltage QuasiFermiPotential DisplacementCurrent eCurrent hCurrent
    TotalCurrent Charge ]
}

Data {
      1.00000000000000E-02
      0.00000000000000E+00   0.00000000000000E+00   0.00000000000000E+00   0.00000000000000E+00  -1.37809243268212E-13
     -2.88571728044439E-10  -2.88709537287707E-10  -1.00907095787138E-17   4.00000000000000E-03   4.00000000000000E-03
      0.00000000000000E+00   0.00000000000000E+00   0.00000000000000E+00   0.00000000000000E+00   0.00000000000000E+00
     -4.17615792203439E-17   3.70000000000000E-01   3.70000000000000E-01   0.00000000000000E+00   0.00000000000000E+00
      2.88708057239205E-10   1.48004850232228E-15   2.88709537287707E-10   1.92970646218354E-17   1.40000000000000E-01
      1.40000000000000E-01   0.00000000000000E+00   0.00000000000000E+00   0.00000000000000E+00   0.00000000000000E+00
      0.00000000000000E+00   3.25552241772223E-17
      2.00000000000000E-02
      0.00000000000000E+00   0.00000000000000E+00   0.00000000000000E+00   0.00000000000000E+00  -1.38944769676701E-13
     -2.73126847654161E-10  -2.73265792423838E-10  -1.01357492737188E-17   8.00000000000000E-03   8.00000000000000E-03
      0.00000000000000E+00   0.00000000000000E+00   0.00000000000000E+00   0.00000000000000E+00   0.00000000000000E+00
     -4.06248351872871E-17   3.70000000000000E-01   3.70000000000000E-01   0.00000000000000E+00   0.00000000000000E+00
      2.73263820146603E-10   1.97227723540509E-15   2.73265792423838E-10   1.92544049288488E-17   1.40000000000000E-01
      1.40000000000000E-01   0.00000000000000E+00   0.00000000000000E+00   0.00000000000000E+00   0.00000000000000E+00
      0.00000000000000E+00   3.15061795321571E-17
      3.00000000000000E-02
      0.00000000000000E+00   0.00000000000000E+00   0.00000000000000E+00   0.00000000000000E+00  -1.40084047328845E-13
     -2.58489580023314E-10  -2.58629664070643E-10  -1.01807412936505E-17   1.20000000000000E-02   1.20000000000000E-02
      0.00000000000000E+00   0.00000000000000E+00   0.00000000000000E+00   0.00000000000000E+00   0.00000000000000E+00
     -3.94881146467809E-17   3.70000000000000E-01   3.70000000000000E-01   0.00000000000000E+00   0.00000000000000E+00
      2.58627233786364E-10   2.43028427907209E-15   2.58629664070643E-10   1.92117445015162E-17   1.40000000000000E-01
      1.40000000000000E-01   0.00000000000000E+00   0.00000000000000E+00   0.00000000000000E+00   0.00000000000000E+00
      0.00000000000000E+00   3.04571114389152E-17
      4.00000000000000E-02
      0.00000000000000E+00   0.00000000000000E+00   0.00000000000000E+00   0.00000000000000E+00  -1.41227042212913E-13
     -2.44622575676611E-10  -2.44763802718824E-10  -1.02256866731589E-17   1.60000000000000E-02   1.60000000000000E-02
      0.00000000000000E+00   0.00000000000000E+00   0.00000000000000E+00   0.00000000000000E+00   0.00000000000000E+00
     -3.83514170494394E-17   3.70000000000000E-01   3.70000000000000E-01   0.00000000000000E+00   0.00000000000000E+00
      2.44760946572285E-10   2.85614653866530E-15   2.44763802718824E-10   1.91690832795732E-17   1.40000000000000E-01
      1.40000000000000E-01   0.00000000000000E+00   0.00000000000000E+00   0.00000000000000E+00   0.00000000000000E+00
      0.00000000000000E+00   2.94080204430252E-17
      5.00000000000000E-02
      0.00000000000000E+00   0.00000000000000E+00   0.00000000000000E+00   0.00000000000000E+00  -1.42373720251345E-13
     -2.31489922248739E-10  -2.31632295968991E-10  -1.02705864227554E-17   2.00000000000000E-02   2.00000000000000E-02
      0.00000000000000E+00   0.00000000000000E+00   0.00000000000000E+00   0.00000000000000E+00   0.00000000000000E+00
     -3.72147418596250E-17   3.70000000000000E-01   3.70000000000000E-01   0.00000000000000E+00   0.00000000000000E+00
      2.31629044141486E-10   3.25182750445624E-15   2.31632295968990E-10   1.91264212057846E-17   1.40000000000000E-01
      1.40000000000000E-01   0.00000000000000E+00   0.00000000000000E+00   0.00000000000000E+00   0.00000000000000E+00
      0.00000000000000E+00   2.83589070765959E-17
      6.00000000000000E-02
      0.00000000000000E+00   0.00000000000000E+00   0.00000000000000E+00   0.00000000000000E+00  -1.43524047329739E-13
     -2.19057104885048E-10  -2.19200628932377E-10  -1.03154415293833E-17   2.40000000000000E-02   2.40000000000000E-02
      0.00000000000000E+00   0.00000000000000E+00   0.00000000000000E+00   0.00000000000000E+00   0.00000000000000E+00
     -3.60780885550213E-17   3.70000000000000E-01   3.70000000000000E-01   0.00000000000000E+00   0.00000000000000E+00
      2.19197009751303E-10   3.61918107406839E-15   2.19200628932377E-10   1.90837582256882E-17   1.40000000000000E-01
      1.40000000000000E-01   0.00000000000000E+00   0.00000000000000E+00   0.00000000000000E+00   0.00000000000000E+00
      0.00000000000000E+00   2.73097718587164E-17
      7.00000000000000E-02
      0.00000000000000E+00   0.00000000000000E+00   0.00000000000000E+00   0.00000000000000E+00  -1.44677989323348E-13
     -2.07290967111255E-10  -2.07435645100579E-10  -1.03602529569754E-17   2.80000000000000E-02   2.80000000000000E-02
      0.00000000000000E+00   0.00000000000000E+00   0.00000000000000E+00   0.00000000000000E+00   0.00000000000000E+00
     -3.49414566262231E-17   3.70000000000000E-01   3.70000000000000E-01   0.00000000000000E+00   0.00000000000000E+00
      2.07431685142777E-10   3.95995780173631E-15   2.07435645100579E-10   1.90410942873584E-17   1.40000000000000E-01
      1.40000000000000E-01   0.00000000000000E+00   0.00000000000000E+00   0.00000000000000E+00   0.00000000000000E+00
      0.00000000000000E+00   2.62606152958401E-17
      8.00000000000000E-02
      0.00000000000000E+00   0.00000000000000E+00   0.00000000000000E+00   0.00000000000000E+00  -1.45835512121297E-13
     -1.96159672181332E-10  -1.96305507693453E-10  -1.04050216469991E-17   3.20000000000000E-02   3.20000000000000E-02
      0.00000000000000E+00   0.00000000000000E+00   0.00000000000000E+00   0.00000000000000E+00   0.00000000000000E+00
     -3.38048455763429E-17   3.70000000000000E-01   3.70000000000000E-01   0.00000000000000E+00   0.00000000000000E+00
      1.96301231883588E-10   4.27580986530760E-15   1.96305507693453E-10   1.89984293411872E-17   1.40000000000000E-01
      1.40000000000000E-01   0.00000000000000E+00   0.00000000000000E+00   0.00000000000000E+00   0.00000000000000E+00
      0.00000000000000E+00   2.52114378821548E-17
      9.00000000000000E-02
      0.00000000000000E+00   0.00000000000000E+00   0.00000000000000E+00   0.00000000000000E+00  -1.46996581648744E-13
     -1.85632664917470E-10  -1.85779661499119E-10  -1.04497485189895E-17   3.60000000000000E-02   3.60000000000000E-02
      0.00000000000000E+00   0.00000000000000E+00   0.00000000000000E+00   0.00000000000000E+00   0.00000000000000E+00
     -3.26682549206326E-17   3.70000000000000E-01   3.70000000000000E-01   0.00000000000000E+00   0.00000000000000E+00
      1.85775093203156E-10   4.56829596250548E-15   1.85779661499119E-10   1.89557633396819E-17   1.40000000000000E-01
      1.40000000000000E-01   0.00000000000000E+00   0.00000000000000E+00   0.00000000000000E+00   0.00000000000000E+00
      0.00000000000000E+00   2.41622400999402E-17
      1.00000000000000E-01
      0.00000000000000E+00   0.00000000000000E+00   0.00000000000000E+00   0.00000000000000E+00  -1.48161163887147E-13
     -1.75680634054280E-10  -1.75828795218167E-10  -1.04944344710710E-17   4.00000000000000E-02   4.00000000000000E-02
      0.00000000000000E+00   0.00000000000000E+00   0.00000000000000E+00   0.00000000000000E+00   0.00000000000000E+00
     -3.15316841861195E-17   3.70000000000000E-01   3.70000000000000E-01   0.00000000000000E+00   0.00000000000000E+00
      1.75823956332409E-10   4.83888575858910E-15   1.75828795218167E-10   1.89130962372785E-17   1.40000000000000E-01
      1.40000000000000E-01   0.00000000000000E+00   0.00000000000000E+00   0.00000000000000E+00   0.00000000000000E+00
      0.00000000000000E+00   2.31130224199120E-17
      1.10000000000000E-01
      0.00000000000000E+00   0.00000000000000E+00   0.00000000000000E+00   0.00000000000000E+00  -1.49329224892827E-13
     -1.66275475100360E-10  -1.66424804325253E-10  -1.05390803804664E-17   4.40000000000000E-02   4.40000000000000E-02
      0.00000000000000E+00   0.00000000000000E+00   0.00000000000000E+00   0.00000000000000E+00   0.00000000000000E+00
     -3.03951329112560E-17   3.70000000000000E-01   3.70000000000000E-01   0.00000000000000E+00   0.00000000000000E+00
      1.66419715360505E-10   5.08896474814443E-15   1.66424804325253E-10   1.88704279901682E-17   1.40000000000000E-01
      1.40000000000000E-01   0.00000000000000E+00   0.00000000000000E+00   0.00000000000000E+00   0.00000000000000E+00
      0.00000000000000E+00   2.20637853015542E-17
      1.20000000000000E-01
      0.00000000000000E+00   0.00000000000000E+00   0.00000000000000E+00   0.00000000000000E+00  -1.50500730813964E-13
     -1.57390253728052E-10  -1.57540754458866E-10  -1.05836871039952E-17   4.80000000000000E-02   4.80000000000000E-02
      0.00000000000000E+00   0.00000000000000E+00   0.00000000000000E+00   0.00000000000000E+00   0.00000000000000E+00
     -2.92586006455825E-17   3.70000000000000E-01   3.70000000000000E-01   0.00000000000000E+00   0.00000000000000E+00
      1.57535434620570E-10   5.31983829589442E-15   1.57540754458866E-10   1.88277585561380E-17   1.40000000000000E-01
      1.40000000000000E-01   0.00000000000000E+00   0.00000000000000E+00   0.00000000000000E+00   0.00000000000000E+00
      0.00000000000000E+00   2.10145291934396E-17
      1.30000000000000E-01
      0.00000000000000E+00   0.00000000000000E+00   0.00000000000000E+00   0.00000000000000E+00  -1.51675647906170E-13
     -1.48999169704115E-10  -1.49150845352022E-10  -1.06282554785601E-17   5.20000000000000E-02   5.20000000000000E-02
      0.00000000000000E+00   0.00000000000000E+00   0.00000000000000E+00   0.00000000000000E+00   0.00000000000000E+00
     -2.81220869494025E-17   3.70000000000000E-01   3.70000000000000E-01   0.00000000000000E+00   0.00000000000000E+00
      1.49145312616218E-10   5.53273580312378E-15   1.49150845352022E-10   1.87850878944219E-17   1.40000000000000E-01
      1.40000000000000E-01   0.00000000000000E+00   0.00000000000000E+00   0.00000000000000E+00   0.00000000000000E+00
      0.00000000000000E+00   1.99652545335407E-17
      1.40000000000000E-01
      0.00000000000000E+00   0.00000000000000E+00   0.00000000000000E+00   0.00000000000000E+00  -1.52853942546746E-13
     -1.41077521372482E-10  -1.41230375315029E-10  -1.06727863216229E-17   5.60000000000000E-02   5.60000000000000E-02
      0.00000000000000E+00   0.00000000000000E+00   0.00000000000000E+00   0.00000000000000E+00   0.00000000000000E+00
     -2.69855913934692E-17   3.70000000000000E-01   3.70000000000000E-01   0.00000000000000E+00   0.00000000000000E+00
      1.41224646500332E-10   5.72881469690133E-15   1.41230375315029E-10   1.87424159655640E-17   1.40000000000000E-01
      1.40000000000000E-01   0.00000000000000E+00   0.00000000000000E+00   0.00000000000000E+00   0.00000000000000E+00
      0.00000000000000E+00   1.89159617495281E-17
      1.50000000000000E-01
      0.00000000000000E+00   0.00000000000000E+00   0.00000000000000E+00   0.00000000000000E+00  -1.54035581247762E-13
     -1.33601670700108E-10  -1.33755706281355E-10  -1.07172804316691E-17   6.00000000000000E-02   6.00000000000000E-02
      0.00000000000000E+00   0.00000000000000E+00   0.00000000000000E+00   0.00000000000000E+00   0.00000000000000E+00
     -2.58491135586832E-17   3.70000000000000E-01   3.70000000000000E-01   0.00000000000000E+00   0.00000000000000E+00
      1.33749797117278E-10   5.90916407779433E-15   1.33755706281355E-10   1.86997427312912E-17   1.40000000000000E-01
      1.40000000000000E-01   0.00000000000000E+00   0.00000000000000E+00   0.00000000000000E+00   0.00000000000000E+00
      0.00000000000000E+00   1.78666512590611E-17
      1.60000000000000E-01
      0.00000000000000E+00   0.00000000000000E+00   0.00000000000000E+00   0.00000000000000E+00  -1.55220530668035E-13
     -1.26549008897203E-10  -1.26704229427871E-10  -1.07617385886618E-17   6.40000000000000E-02   6.40000000000000E-02
      0.00000000000000E+00   0.00000000000000E+00   0.00000000000000E+00   0.00000000000000E+00   0.00000000000000E+00
     -2.47126530358009E-17   3.70000000000000E-01   3.70000000000000E-01   0.00000000000000E+00   0.00000000000000E+00
      1.26698154619379E-10   6.07480849175624E-15   1.26704229427871E-10   1.86570681543953E-17   1.40000000000000E-01
      1.40000000000000E-01   0.00000000000000E+00   0.00000000000000E+00   0.00000000000000E+00   0.00000000000000E+00
      0.00000000000000E+00   1.68173234700675E-17
      1.70000000000000E-01
      0.00000000000000E+00   0.00000000000000E+00   0.00000000000000E+00   0.00000000000000E+00  -1.56408757624104E-13
     -1.19897922621677E-10  -1.20054331379301E-10  -1.08061615544858E-17   6.80000000000000E-02   6.80000000000000E-02
      0.00000000000000E+00   0.00000000000000E+00   0.00000000000000E+00   0.00000000000000E+00   0.00000000000000E+00
     -2.35762094251525E-17   3.70000000000000E-01   3.70000000000000E-01   0.00000000000000E+00   0.00000000000000E+00
      1.20048104668109E-10   6.22671119160718E-15   1.20054331379301E-10   1.86143921986237E-17   1.40000000000000E-01
      1.40000000000000E-01   0.00000000000000E+00   0.00000000000000E+00   0.00000000000000E+00   0.00000000000000E+00
      0.00000000000000E+00   1.57679787810147E-17
      1.80000000000000E-01
      0.00000000000000E+00   0.00000000000000E+00   0.00000000000000E+00   0.00000000000000E+00  -1.57600229100292E-13
     -1.13627760778474E-10  -1.13785361007574E-10  -1.08505500733807E-17   7.20000000000000E-02   7.20000000000000E-02
      0.00000000000000E+00   0.00000000000000E+00   0.00000000000000E+00   0.00000000000000E+00   0.00000000000000E+00
     -2.24397823363699E-17   3.70000000000000E-01   3.70000000000000E-01   0.00000000000000E+00   0.00000000000000E+00
      1.13778995230102E-10   6.36577747202819E-15   1.13785361007574E-10   1.85717148285777E-17   1.40000000000000E-01
      1.40000000000000E-01   0.00000000000000E+00   0.00000000000000E+00   0.00000000000000E+00   0.00000000000000E+00
      0.00000000000000E+00   1.47186175811729E-17
      1.90000000000000E-01
      0.00000000000000E+00   0.00000000000000E+00   0.00000000000000E+00   0.00000000000000E+00  -1.58794912257916E-13
     -1.07718801923180E-10  -1.07877596835438E-10  -1.08949048723637E-17   7.60000000000000E-02   7.60000000000000E-02
      0.00000000000000E+00   0.00000000000000E+00   0.00000000000000E+00   0.00000000000000E+00   0.00000000000000E+00
     -2.13033713881235E-17   3.70000000000000E-01   3.70000000000000E-01   0.00000000000000E+00   0.00000000000000E+00
      1.07871103977666E-10   6.49285777203709E-15   1.07877596835438E-10   1.85290360096183E-17   1.40000000000000E-01
      1.40000000000000E-01   0.00000000000000E+00   0.00000000000000E+00   0.00000000000000E+00   0.00000000000000E+00
      0.00000000000000E+00   1.36692402508689E-17
      2.00000000000000E-01
      0.00000000000000E+00   0.00000000000000E+00   0.00000000000000E+00   0.00000000000000E+00  -1.59992774443726E-13
     -1.02152222279336E-10  -1.02312215053779E-10  -1.09392266616441E-17   8.00000000000000E-02   8.00000000000000E-02
      0.00000000000000E+00   0.00000000000000E+00   0.00000000000000E+00   0.00000000000000E+00   0.00000000000000E+00
     -2.01669762078673E-17   3.70000000000000E-01   3.70000000000000E-01   0.00000000000000E+00   0.00000000000000E+00
      1.02305606303102E-10   6.60875067754410E-15   1.02312215053779E-10   1.84863557077786E-17   1.40000000000000E-01
      1.40000000000000E-01   0.00000000000000E+00   0.00000000000000E+00   0.00000000000000E+00   0.00000000000000E+00
      0.00000000000000E+00   1.26198471617327E-17
      2.10000000000000E-01
      0.00000000000000E+00   0.00000000000000E+00   0.00000000000000E+00   0.00000000000000E+00  -1.61193783197628E-13
     -9.69100643782828E-11  -9.70712581614804E-11  -1.09835161350258E-17   8.40000000000000E-02   8.40000000000000E-02
      0.00000000000000E+00   0.00000000000000E+00   0.00000000000000E+00   0.00000000000000E+00   0.00000000000000E+00
     -1.90305964315931E-17   3.70000000000000E-01   3.70000000000000E-01   0.00000000000000E+00   0.00000000000000E+00
      9.70645439556764E-11   6.71420580398535E-15   9.70712581614804E-11   1.84436738896822E-17   1.40000000000000E-01
      1.40000000000000E-01   0.00000000000000E+00   0.00000000000000E+00   0.00000000000000E+00   0.00000000000000E+00
      0.00000000000000E+00   1.15704386769367E-17
      2.20000000000000E-01
      0.00000000000000E+00   0.00000000000000E+00   0.00000000000000E+00   0.00000000000000E+00  -1.62397906259739E-13
     -9.19752063297670E-11  -9.21376042360268E-11  -1.10277739703027E-17   8.80000000000000E-02   8.80000000000000E-02
      0.00000000000000E+00   0.00000000000000E+00   0.00000000000000E+00   0.00000000000000E+00   0.00000000000000E+00
     -1.78942317035915E-17   3.70000000000000E-01   3.70000000000000E-01   0.00000000000000E+00   0.00000000000000E+00
      9.21307943096933E-11   6.80992633340304E-15   9.21376042360268E-11   1.84009905224671E-17   1.40000000000000E-01
      1.40000000000000E-01   0.00000000000000E+00   0.00000000000000E+00   0.00000000000000E+00   0.00000000000000E+00
      0.00000000000000E+00   1.05210151514271E-17
      2.30000000000000E-01
      0.00000000000000E+00   0.00000000000000E+00   0.00000000000000E+00   0.00000000000000E+00  -1.63605111576846E-13
     -8.73313317318864E-11  -8.74949368434632E-11  -1.10720008296429E-17   9.20000000000000E-02   9.20000000000000E-02
      0.00000000000000E+00   0.00000000000000E+00   0.00000000000000E+00   0.00000000000000E+00   0.00000000000000E+00
     -1.67578816762213E-17   3.70000000000000E-01   3.70000000000000E-01   0.00000000000000E+00   0.00000000000000E+00
      8.74880402716504E-11   6.89657181290103E-15   8.74949368434633E-11   1.83583055737154E-17   1.40000000000000E-01
      1.40000000000000E-01   0.00000000000000E+00   0.00000000000000E+00   0.00000000000000E+00   0.00000000000000E+00
      0.00000000000000E+00   9.47157693214873E-18
      2.40000000000000E-01
      0.00000000000000E+00   0.00000000000000E+00   0.00000000000000E+00   0.00000000000000E+00  -1.64815367308292E-13
     -8.29629002271320E-11  -8.31277155944403E-11  -1.11161973599648E-17   9.60000000000000E-02   9.60000000000000E-02
      0.00000000000000E+00   0.00000000000000E+00   0.00000000000000E+00   0.00000000000000E+00   0.00000000000000E+00
     -1.56215460096855E-17   3.70000000000000E-01   3.70000000000000E-01   0.00000000000000E+00   0.00000000000000E+00
      8.31207408340223E-11   6.97476041802142E-15   8.31277155944403E-11   1.83156190113871E-17   1.40000000000000E-01
      1.40000000000000E-01   0.00000000000000E+00   0.00000000000000E+00   0.00000000000000E+00   0.00000000000000E+00
      0.00000000000000E+00   8.42212435826326E-18
      2.50000000000000E-01
      0.00000000000000E+00   0.00000000000000E+00   0.00000000000000E+00   0.00000000000000E+00  -1.66028641831353E-13
     -7.88551187123781E-11  -7.90211473542095E-11  -1.11603641933045E-17   1.00000000000000E-01   1.00000000000000E-01
      0.00000000000000E+00   0.00000000000000E+00   0.00000000000000E+00   0.00000000000000E+00   0.00000000000000E+00
     -1.44852243718145E-17   3.70000000000000E-01   3.70000000000000E-01   0.00000000000000E+00   0.00000000000000E+00
      7.90141022827638E-11   7.04507144562890E-15   7.90211473542095E-11   1.82729308037583E-17   1.40000000000000E-01
      1.40000000000000E-01   0.00000000000000E+00   0.00000000000000E+00   0.00000000000000E+00   0.00000000000000E+00
      0.00000000000000E+00   7.37265776136069E-18
      2.60000000000000E-01
      0.00000000000000E+00   0.00000000000000E+00   0.00000000000000E+00   0.00000000000000E+00  -1.67244903746123E-13
     -7.49939132087860E-11  -7.51611581125321E-11  -1.12045019471735E-17   1.04000000000000E-01   1.04000000000000E-01
      0.00000000000000E+00   0.00000000000000E+00   0.00000000000000E+00   0.00000000000000E+00   0.00000000000000E+00
     -1.33489164378557E-17   3.70000000000000E-01   3.70000000000000E-01   0.00000000000000E+00   0.00000000000000E+00
      7.51540500651599E-11   7.10804737221511E-15   7.51611581125321E-11   1.82302409193642E-17   1.40000000000000E-01
      1.40000000000000E-01   0.00000000000000E+00   0.00000000000000E+00   0.00000000000000E+00   0.00000000000000E+00
      0.00000000000000E+00   6.32317746566505E-18
      2.70000000000000E-01
      0.00000000000000E+00   0.00000000000000E+00   0.00000000000000E+00   0.00000000000000E+00  -1.68464121879967E-13
     -7.13659013983906E-11  -7.15343655202706E-11  -1.12486112249089E-17   1.08000000000000E-01   1.08000000000000E-01
      0.00000000000000E+00   0.00000000000000E+00   0.00000000000000E+00   0.00000000000000E+00   0.00000000000000E+00
     -1.22126218902698E-17   3.70000000000000E-01   3.70000000000000E-01   0.00000000000000E+00   0.00000000000000E+00
      7.15272013242038E-11   7.16419606676003E-15   7.15343655202706E-11   1.81875493269448E-17   1.40000000000000E-01
      1.40000000000000E-01   0.00000000000000E+00   0.00000000000000E+00   0.00000000000000E+00   0.00000000000000E+00
      0.00000000000000E+00   5.27368378823389E-18
      2.80000000000000E-01
      0.00000000000000E+00   0.00000000000000E+00   0.00000000000000E+00   0.00000000000000E+00  -1.69686265291554E-13
     -6.79583658327158E-11  -6.81280520980074E-11  -1.12926926160146E-17   1.12000000000000E-01   1.12000000000000E-01
      0.00000000000000E+00   0.00000000000000E+00   0.00000000000000E+00   0.00000000000000E+00   0.00000000000000E+00
     -1.10763404185324E-17   3.70000000000000E-01   3.70000000000000E-01   0.00000000000000E+00   0.00000000000000E+00
      6.81208381052225E-11   7.21399278494314E-15   6.81280520980074E-11   1.81448559953947E-17   1.40000000000000E-01
      1.40000000000000E-01   0.00000000000000E+00   0.00000000000000E+00   0.00000000000000E+00   0.00000000000000E+00
      0.00000000000000E+00   4.22417703915227E-18
      2.90000000000000E-01
      0.00000000000000E+00   0.00000000000000E+00   0.00000000000000E+00   0.00000000000000E+00  -1.70911303274511E-13
     -6.47592278187327E-11  -6.49301391220072E-11  -1.13367466964947E-17   1.16000000000000E-01   1.16000000000000E-01
      0.00000000000000E+00   0.00000000000000E+00   0.00000000000000E+00   0.00000000000000E+00   0.00000000000000E+00
     -9.94007171894222E-18   3.70000000000000E-01   3.70000000000000E-01   0.00000000000000E+00   0.00000000000000E+00
      6.49228812400175E-11   7.25788198972151E-15   6.49301391220072E-11   1.81021608937157E-17   1.40000000000000E-01
      1.40000000000000E-01   0.00000000000000E+00   0.00000000000000E+00   0.00000000000000E+00   0.00000000000000E+00
      0.00000000000000E+00   3.17465752172123E-18
      3.00000000000000E-01
      0.00000000000000E+00   0.00000000000000E+00   0.00000000000000E+00   0.00000000000000E+00  -1.72139205360730E-13
     -6.17570219872677E-11  -6.19291611926284E-11  -1.13807740291786E-17   1.20000000000000E-01   1.20000000000000E-01
      0.00000000000000E+00   0.00000000000000E+00   0.00000000000000E+00   0.00000000000000E+00   0.00000000000000E+00
     -8.80381549443466E-18   3.70000000000000E-01   3.70000000000000E-01   0.00000000000000E+00   0.00000000000000E+00
      6.19218649133453E-11   7.29627928311763E-15   6.19291611926284E-11   1.80594639909724E-17   1.40000000000000E-01
      1.40000000000000E-01   0.00000000000000E+00   0.00000000000000E+00   0.00000000000000E+00   0.00000000000000E+00
      0.00000000000000E+00   2.12512553264089E-18
      3.10000000000000E-01
      0.00000000000000E+00   0.00000000000000E+00   0.00000000000000E+00   0.00000000000000E+00  -1.73369941323340E-13
     -5.89408715478258E-11  -5.91142414891491E-11  -1.14247751640387E-17   1.24000000000000E-01   1.24000000000000E-01
      0.00000000000000E+00   0.00000000000000E+00   0.00000000000000E+00   0.00000000000000E+00   0.00000000000000E+00
     -7.66757145440031E-18   3.70000000000000E-01   3.70000000000000E-01   0.00000000000000E+00   0.00000000000000E+00
      5.91069119161180E-11   7.32957303109849E-15   5.91142414891491E-11   1.80167652562504E-17   1.40000000000000E-01
      1.40000000000000E-01   0.00000000000000E+00   0.00000000000000E+00   0.00000000000000E+00   0.00000000000000E+00
      0.00000000000000E+00   1.07558136218863E-18
      3.20000000000000E-01
      0.00000000000000E+00   0.00000000000000E+00   0.00000000000000E+00   0.00000000000000E+00  -1.74603481179378E-13
     -5.63004642340878E-11  -5.64750677152672E-11  -1.14687506385000E-17   1.28000000000000E-01   1.28000000000000E-01
      0.00000000000000E+00   0.00000000000000E+00   0.00000000000000E+00   0.00000000000000E+00   0.00000000000000E+00
     -6.53133931450917E-18   3.70000000000000E-01   3.70000000000000E-01   0.00000000000000E+00   0.00000000000000E+00
      5.64677095892796E-11   7.35812598753318E-15   5.64750677152672E-11   1.79740646586169E-17   1.40000000000000E-01
      1.40000000000000E-01   0.00000000000000E+00   0.00000000000000E+00   0.00000000000000E+00   0.00000000000000E+00
      0.00000000000000E+00   2.60252943921880E-20
      3.30000000000000E-01
      0.00000000000000E+00   0.00000000000000E+00   0.00000000000000E+00   0.00000000000000E+00  -1.75839795192189E-13
     -5.38260289435322E-11  -5.40018687387243E-11  -1.15127009777425E-17   1.32000000000000E-01   1.32000000000000E-01
      0.00000000000000E+00   0.00000000000000E+00   0.00000000000000E+00   0.00000000000000E+00   0.00000000000000E+00
     -5.39511879653954E-18   3.70000000000000E-01   3.70000000000000E-01   0.00000000000000E+00   0.00000000000000E+00
      5.39944864618883E-11   7.38227683603490E-15   5.40018687387243E-11   1.79313621670838E-17   1.40000000000000E-01
      1.40000000000000E-01   0.00000000000000E+00   0.00000000000000E+00   0.00000000000000E+00   0.00000000000000E+00
      0.00000000000000E+00  -1.02354239280177E-18
      3.40000000000000E-01
      0.00000000000000E+00   0.00000000000000E+00   0.00000000000000E+00   0.00000000000000E+00  -1.77078853873549E-13
     -5.15083130743726E-11  -5.16853919282462E-11  -1.15566266949962E-17   1.36000000000000E-01   1.36000000000000E-01
      0.00000000000000E+00   0.00000000000000E+00   0.00000000000000E+00   0.00000000000000E+00   0.00000000000000E+00
     -4.25890962821179E-18   3.70000000000000E-01   3.70000000000000E-01   0.00000000000000E+00   0.00000000000000E+00
      5.16779895865312E-11   7.40234171504170E-15   5.16853919282463E-11   1.78886577505719E-17   1.40000000000000E-01
      1.40000000000000E-01   0.00000000000000E+00   0.00000000000000E+00   0.00000000000000E+00   0.00000000000000E+00
      0.00000000000000E+00  -2.07312142736383E-18
      3.50000000000000E-01
      0.00000000000000E+00   0.00000000000000E+00   0.00000000000000E+00   0.00000000000000E+00  -1.78320627985561E-13
     -4.93385605622977E-11  -4.95168811902833E-11  -1.16005282918293E-17   1.40000000000000E-01   1.40000000000000E-01
      0.00000000000000E+00   0.00000000000000E+00   0.00000000000000E+00   0.00000000000000E+00   0.00000000000000E+00
     -3.12271154302666E-18   3.70000000000000E-01   3.70000000000000E-01   0.00000000000000E+00   0.00000000000000E+00
      4.95094625748022E-11   7.41861548102911E-15   4.95168811902833E-11   1.78459513778783E-17   1.40000000000000E-01
      1.40000000000000E-01   0.00000000000000E+00   0.00000000000000E+00   0.00000000000000E+00   0.00000000000000E+00
      0.00000000000000E+00  -3.12271154302228E-18
      3.60000000000000E-01
      0.00000000000000E+00   0.00000000000000E+00   0.00000000000000E+00   0.00000000000000E+00  -1.79565088542325E-13
     -4.73084906197753E-11  -4.74880557083176E-11  -1.16444062584286E-17   1.44000000000000E-01   1.44000000000000E-01
      0.00000000000000E+00   0.00000000000000E+00   0.00000000000000E+00   0.00000000000000E+00   0.00000000000000E+00
     -1.98652428010808E-18   3.70000000000000E-01   3.70000000000000E-01   0.00000000000000E+00   0.00000000000000E+00
      4.74806243351951E-11   7.43137312245209E-15   4.74880557083176E-11   1.78032430176445E-17   1.40000000000000E-01
      1.40000000000000E-01   0.00000000000000E+00   0.00000000000000E+00   0.00000000000000E+00   0.00000000000000E+00
      0.00000000000000E+00  -4.17231247910786E-18
      3.70000000000000E-01
      0.00000000000000E+00   0.00000000000000E+00   0.00000000000000E+00   0.00000000000000E+00  -1.80812206811394E-13