DF-ISE text

Info {
  version   = 1.0
  type      = xyplot
  datasets  = [
    "time"
    "source OuterVoltage" "source InnerVoltage" "source QuasiFermiPotential" "source DisplacementCurrent" "source eCurrent"
    "source hCurrent" "source TotalCurrent" "source Charge" "topGate OuterVoltage" "topGate InnerVoltage"
    "topGate QuasiFermiPotential" "topGate DisplacementCurrent" "topGate eCurrent" "topGate hCurrent" "topGate TotalCurrent"
    "topGate Charge" "drain OuterVoltage" "drain InnerVoltage" "drain QuasiFermiPotential" "drain DisplacementCurrent"
    "drain eCurrent" "drain hCurrent" "drain TotalCurrent" "drain Charge" "bottomGate OuterVoltage"
    "bottomGate InnerVoltage" "bottomGate QuasiFermiPotential" "bottomGate DisplacementCurrent" "bottomGate eCurrent" "bottomGate hCurrent"
    "bottomGate TotalCurrent" "bottomGate Charge" ]
  functions = [
    Time
    OuterVoltage InnerVoltage QuasiFermiPotential DisplacementCurrent eCurrent
    hCurrent TotalCurrent Charge OuterVoltage InnerVoltage
    QuasiFermiPotential DisplacementCurrent eCurrent hCurrent TotalCurrent
    Charge OuterVoltage InnerVoltage QuasiFermiPotential DisplacementCurrent
    eCurrent hCurrent TotalCurrent Charge OuterVoltage
    InnerVoltage QuasiFermiPotential DisplacementCurrent eCurrent hCurrent
    TotalCurrent Charge ]
}

Data {
      1.00000000000000E-02
      0.00000000000000E+00   0.00000000000000E+00   0.00000000000000E+00   0.00000000000000E+00  -1.37524151221127E-13
     -5.89147592147533E-12  -6.02900007269646E-12  -1.00906085478872E-17   4.00000000000000E-03   4.00000000000000E-03
      0.00000000000000E+00   0.00000000000000E+00   0.00000000000000E+00   0.00000000000000E+00   0.00000000000000E+00
     -3.95162597231522E-17   1.60000000000000E-01   1.60000000000000E-01   0.00000000000000E+00   0.00000000000000E+00
      6.02316034796449E-12   5.83972473196746E-15   6.02900007269646E-12   1.48063248960317E-17   1.40000000000000E-01
      1.40000000000000E-01   0.00000000000000E+00   0.00000000000000E+00   0.00000000000000E+00   0.00000000000000E+00
      0.00000000000000E+00   3.48005433750078E-17
      2.00000000000000E-02
      0.00000000000000E+00   0.00000000000000E+00   0.00000000000000E+00   0.00000000000000E+00  -1.38657318393841E-13
     -5.30922682029305E-12  -5.44788413868689E-12  -1.01356483242177E-17   8.00000000000000E-03   8.00000000000000E-03
      0.00000000000000E+00   0.00000000000000E+00   0.00000000000000E+00   0.00000000000000E+00   0.00000000000000E+00
     -3.83793593318245E-17   1.60000000000000E-01   1.60000000000000E-01   0.00000000000000E+00   0.00000000000000E+00
      5.44207340653967E-12   5.81073214721873E-15   5.44788413868689E-12   1.47633525454807E-17   1.40000000000000E-01
      1.40000000000000E-01   0.00000000000000E+00   0.00000000000000E+00   0.00000000000000E+00   0.00000000000000E+00
      0.00000000000000E+00   3.37516551105615E-17
      3.00000000000000E-02
      0.00000000000000E+00   0.00000000000000E+00   0.00000000000000E+00   0.00000000000000E+00  -1.39794231810243E-13
     -4.78037639890530E-12  -4.92017063071555E-12  -1.01806404241677E-17   1.20000000000000E-02   1.20000000000000E-02
      0.00000000000000E+00   0.00000000000000E+00   0.00000000000000E+00   0.00000000000000E+00   0.00000000000000E+00
     -3.72424800559844E-17   1.60000000000000E-01   1.60000000000000E-01   0.00000000000000E+00   0.00000000000000E+00
      4.91438887730956E-12   5.78175340598535E-15   4.92017063071555E-12   1.47203747064538E-17   1.40000000000000E-01
      1.40000000000000E-01   0.00000000000000E+00   0.00000000000000E+00   0.00000000000000E+00   0.00000000000000E+00
      0.00000000000000E+00   3.27027457736984E-17
      4.00000000000000E-02
      0.00000000000000E+00   0.00000000000000E+00   0.00000000000000E+00   0.00000000000000E+00  -1.40934857263125E-13
     -4.30054546943405E-12  -4.44148032669717E-12  -1.02255858823812E-17   1.60000000000000E-02   1.60000000000000E-02
      0.00000000000000E+00   0.00000000000000E+00   0.00000000000000E+00   0.00000000000000E+00   0.00000000000000E+00
     -3.61056213033257E-17   1.60000000000000E-01   1.60000000000000E-01   0.00000000000000E+00   0.00000000000000E+00
      4.43572753731885E-12   5.75278937831792E-15   4.44148032669717E-12   1.46773912327883E-17   1.40000000000000E-01
      1.40000000000000E-01   0.00000000000000E+00   0.00000000000000E+00   0.00000000000000E+00   0.00000000000000E+00
      0.00000000000000E+00   3.16538159529186E-17
      5.00000000000000E-02
      0.00000000000000E+00   0.00000000000000E+00   0.00000000000000E+00   0.00000000000000E+00  -1.42079160502754E-13
     -3.86566431786858E-12  -4.00774347837133E-12  -1.02704857093650E-17   2.00000000000000E-02   2.00000000000000E-02
      0.00000000000000E+00   0.00000000000000E+00   0.00000000000000E+00   0.00000000000000E+00   0.00000000000000E+00
     -3.49687824944083E-17   1.60000000000000E-01   1.60000000000000E-01   0.00000000000000E+00   0.00000000000000E+00
      4.00201963716806E-12   5.72384120327554E-15   4.00774347837133E-12   1.46344019795878E-17   1.40000000000000E-01
      1.40000000000000E-01   0.00000000000000E+00   0.00000000000000E+00   0.00000000000000E+00   0.00000000000000E+00
      0.00000000000000E+00   3.06048662241856E-17
      6.00000000000000E-02
      0.00000000000000E+00   0.00000000000000E+00   0.00000000000000E+00   0.00000000000000E+00  -1.43227107264055E-13
     -3.47195507704383E-12  -3.61518218430788E-12  -1.03153408920591E-17   2.40000000000000E-02   2.40000000000000E-02
      0.00000000000000E+00   0.00000000000000E+00   0.00000000000000E+00   0.00000000000000E+00   0.00000000000000E+00
     -3.38319630622082E-17   1.60000000000000E-01   1.60000000000000E-01   0.00000000000000E+00   0.00000000000000E+00
      3.60948727440361E-12   5.69490990426656E-15   3.61518218430788E-12   1.45914068029191E-17   1.40000000000000E-01
      1.40000000000000E-01   0.00000000000000E+00   0.00000000000000E+00   0.00000000000000E+00   0.00000000000000E+00
      0.00000000000000E+00   2.95558971513481E-17
      7.00000000000000E-02
      0.00000000000000E+00   0.00000000000000E+00   0.00000000000000E+00   0.00000000000000E+00  -1.44378663291458E-13
     -3.11591479825721E-12  -3.26029346154867E-12  -1.03601523943938E-17   2.80000000000000E-02   2.80000000000000E-02
      0.00000000000000E+00   0.00000000000000E+00   0.00000000000000E+00   0.00000000000000E+00   0.00000000000000E+00
     -3.26951624516838E-17   1.60000000000000E-01   1.60000000000000E-01   0.00000000000000E+00   0.00000000000000E+00
      3.25462746526652E-12   5.66599628215667E-15   3.26029346154867E-12   1.45484055595296E-17   1.40000000000000E-01
      1.40000000000000E-01   0.00000000000000E+00   0.00000000000000E+00   0.00000000000000E+00   0.00000000000000E+00
      0.00000000000000E+00   2.85069092865479E-17
      8.00000000000000E-02
      0.00000000000000E+00   0.00000000000000E+00   0.00000000000000E+00   0.00000000000000E+00  -1.45533794361473E-13
     -2.79429921235706E-12  -2.93983300671853E-12  -1.04049211578354E-17   3.20000000000000E-02   3.20000000000000E-02
      0.00000000000000E+00   0.00000000000000E+00   0.00000000000000E+00   0.00000000000000E+00   0.00000000000000E+00
     -3.15583801193587E-17   1.60000000000000E-01   1.60000000000000E-01   0.00000000000000E+00   0.00000000000000E+00
      2.93419590546492E-12   5.63710125361693E-15   2.93983300671853E-12   1.45053981065808E-17   1.40000000000000E-01
      1.40000000000000E-01   0.00000000000000E+00   0.00000000000000E+00   0.00000000000000E+00   0.00000000000000E+00
      0.00000000000000E+00   2.74579031706133E-17
      9.00000000000000E-02
      0.00000000000000E+00   0.00000000000000E+00   0.00000000000000E+00   0.00000000000000E+00  -1.46692466303452E-13
     -2.50410716925482E-12  -2.65079963555827E-12  -1.04496481019190E-17   3.60000000000000E-02   3.60000000000000E-02
      0.00000000000000E+00   0.00000000000000E+00   0.00000000000000E+00   0.00000000000000E+00   0.00000000000000E+00
     -3.04216155329193E-17   1.60000000000000E-01   1.60000000000000E-01   0.00000000000000E+00   0.00000000000000E+00
      2.64519140991724E-12   5.60822564102838E-15   2.65079963555827E-12   1.44623843013984E-17   1.40000000000000E-01
      1.40000000000000E-01   0.00000000000000E+00   0.00000000000000E+00   0.00000000000000E+00   0.00000000000000E+00
      0.00000000000000E+00   2.64088793334400E-17
      1.00000000000000E-01
      0.00000000000000E+00   0.00000000000000E+00   0.00000000000000E+00   0.00000000000000E+00  -1.47854645018437E-13
     -2.24256574590361E-12  -2.39042039092205E-12  -1.04943341247698E-17   4.00000000000000E-02   4.00000000000000E-02
      0.00000000000000E+00   0.00000000000000E+00   0.00000000000000E+00   0.00000000000000E+00   0.00000000000000E+00
     -2.92848681708263E-17   1.60000000000000E-01   1.60000000000000E-01   0.00000000000000E+00   0.00000000000000E+00
      2.38484102071532E-12   5.57937020672981E-15   2.39042039092205E-12   1.44193640012361E-17   1.40000000000000E-01
      1.40000000000000E-01   0.00000000000000E+00   0.00000000000000E+00   0.00000000000000E+00   0.00000000000000E+00
      0.00000000000000E+00   2.53598382943600E-17
      1.10000000000000E-01
      0.00000000000000E+00   0.00000000000000E+00   0.00000000000000E+00   0.00000000000000E+00  -1.49020296496425E-13
     -2.00711601111815E-12  -2.15613630761458E-12  -1.05389801036123E-17   4.40000000000000E-02   4.40000000000000E-02
      0.00000000000000E+00   0.00000000000000E+00   0.00000000000000E+00   0.00000000000000E+00   0.00000000000000E+00
     -2.81481375219396E-17   1.60000000000000E-01   1.60000000000000E-01   0.00000000000000E+00   0.00000000000000E+00
      2.15058577189045E-12   5.55053572411978E-15   2.15613630761457E-12   1.43763370630535E-17   1.40000000000000E-01
      1.40000000000000E-01   0.00000000000000E+00   0.00000000000000E+00   0.00000000000000E+00   0.00000000000000E+00
      0.00000000000000E+00   2.43107805624984E-17
      1.20000000000000E-01
      0.00000000000000E+00   0.00000000000000E+00   0.00000000000000E+00   0.00000000000000E+00  -1.50189386832127E-13
     -1.79539943497917E-12  -1.94558882181130E-12  -1.05835868952687E-17   4.80000000000000E-02   4.80000000000000E-02
      0.00000000000000E+00   0.00000000000000E+00   0.00000000000000E+00   0.00000000000000E+00   0.00000000000000E+00
     -2.70114230851557E-17   1.60000000000000E-01   1.60000000000000E-01   0.00000000000000E+00   0.00000000000000E+00
      1.94006709892887E-12   5.52172288243044E-15   1.94558882181130E-12   1.43333033433049E-17   1.40000000000000E-01
      1.40000000000000E-01   0.00000000000000E+00   0.00000000000000E+00   0.00000000000000E+00   0.00000000000000E+00
      0.00000000000000E+00   2.32617066371195E-17
      1.30000000000000E-01
      0.00000000000000E+00   0.00000000000000E+00   0.00000000000000E+00   0.00000000000000E+00  -1.51361882239526E-13
     -1.60524493063496E-12  -1.75660681287449E-12  -1.06281553366451E-17   5.20000000000000E-02   5.20000000000000E-02
      0.00000000000000E+00   0.00000000000000E+00   0.00000000000000E+00   0.00000000000000E+00   0.00000000000000E+00
     -2.58747243690572E-17   1.60000000000000E-01   1.60000000000000E-01   0.00000000000000E+00   0.00000000000000E+00
      1.75111388038270E-12   5.49293249179126E-15   1.75660681287449E-12   1.42902626977402E-17   1.40000000000000E-01
      1.40000000000000E-01   0.00000000000000E+00   0.00000000000000E+00   0.00000000000000E+00   0.00000000000000E+00
      0.00000000000000E+00   2.22126170079621E-17
      1.40000000000000E-01
      0.00000000000000E+00   0.00000000000000E+00   0.00000000000000E+00   0.00000000000000E+00  -1.52537749064878E-13
     -1.43465651436376E-12  -1.58719426342864E-12  -1.06726862452076E-17   5.60000000000000E-02   5.60000000000000E-02
      0.00000000000000E+00   0.00000000000000E+00   0.00000000000000E+00   0.00000000000000E+00   0.00000000000000E+00
     -2.47380408915728E-17   1.60000000000000E-01   1.60000000000000E-01   0.00000000000000E+00   0.00000000000000E+00
      1.58173009835907E-12   5.46416506956639E-15   1.58719426342863E-12   1.42472149812144E-17   1.40000000000000E-01
      1.40000000000000E-01   0.00000000000000E+00   0.00000000000000E+00   0.00000000000000E+00   0.00000000000000E+00
      0.00000000000000E+00   2.11635121555660E-17
      1.50000000000000E-01
      0.00000000000000E+00   0.00000000000000E+00   0.00000000000000E+00   0.00000000000000E+00  -1.53716953799087E-13
     -1.28180157177732E-12  -1.43551852557641E-12  -1.07171804194463E-17   6.00000000000000E-02   6.00000000000000E-02
      0.00000000000000E+00   0.00000000000000E+00   0.00000000000000E+00   0.00000000000000E+00   0.00000000000000E+00
     -2.36013721796485E-17   1.60000000000000E-01   1.60000000000000E-01   0.00000000000000E+00   0.00000000000000E+00
      1.43008310415081E-12   5.43542142559481E-15   1.43551852557641E-12   1.42041600475072E-17   1.40000000000000E-01
      1.40000000000000E-01   0.00000000000000E+00   0.00000000000000E+00   0.00000000000000E+00   0.00000000000000E+00
      0.00000000000000E+00   2.01143925515876E-17
      1.60000000000000E-01
      0.00000000000000E+00   0.00000000000000E+00   0.00000000000000E+00   0.00000000000000E+00  -1.54899463088528E-13
     -1.14499971380052E-12  -1.29989917688905E-12  -1.07616386393302E-17   6.40000000000000E-02   6.40000000000000E-02
      0.00000000000000E+00   0.00000000000000E+00   0.00000000000000E+00   0.00000000000000E+00   0.00000000000000E+00
     -2.24647177689282E-17   1.60000000000000E-01   1.60000000000000E-01   0.00000000000000E+00   0.00000000000000E+00
      1.29449247479500E-12   5.40670209404391E-15   1.29989917688905E-12   1.41610977491503E-17   1.40000000000000E-01
      1.40000000000000E-01   0.00000000000000E+00   0.00000000000000E+00   0.00000000000000E+00   0.00000000000000E+00
      0.00000000000000E+00   1.90652586591081E-17
      1.70000000000000E-01
      0.00000000000000E+00   0.00000000000000E+00   0.00000000000000E+00   0.00000000000000E+00  -1.56085243745340E-13
     -1.02271220989305E-12  -1.17879745363839E-12  -1.08060616667502E-17   6.80000000000000E-02   6.80000000000000E-02
      0.00000000000000E+00   0.00000000000000E+00   0.00000000000000E+00   0.00000000000000E+00   0.00000000000000E+00
     -2.13280772034441E-17   1.60000000000000E-01   1.60000000000000E-01   0.00000000000000E+00   0.00000000000000E+00
      1.17341944591968E-12   5.37800771871154E-15   1.17879745363839E-12   1.41180279372619E-17   1.40000000000000E-01
      1.40000000000000E-01   0.00000000000000E+00   0.00000000000000E+00   0.00000000000000E+00   0.00000000000000E+00
      0.00000000000000E+00   1.80161109329324E-17
      1.80000000000000E-01
      0.00000000000000E+00   0.00000000000000E+00   0.00000000000000E+00   0.00000000000000E+00  -1.57274262756635E-13
     -9.13531981997293E-13  -1.07080624475393E-12  -1.08504502459523E-17   7.20000000000000E-02   7.20000000000000E-02
      0.00000000000000E+00   0.00000000000000E+00   0.00000000000000E+00   0.00000000000000E+00   0.00000000000000E+00
     -2.01914500353159E-17   1.60000000000000E-01   1.60000000000000E-01   0.00000000000000E+00   0.00000000000000E+00
      1.06545690586142E-12   5.34933889250563E-15   1.07080624475393E-12   1.40749504613882E-17   1.40000000000000E-01
      1.40000000000000E-01   0.00000000000000E+00   0.00000000000000E+00   0.00000000000000E+00   0.00000000000000E+00
      0.00000000000000E+00   1.69669498198800E-17
      1.90000000000000E-01
      0.00000000000000E+00   0.00000000000000E+00   0.00000000000000E+00   0.00000000000000E+00  -1.58466487293095E-13
     -8.16174144605758E-13  -9.74640631898853E-13  -1.08948051039614E-17   7.60000000000000E-02   7.60000000000000E-02
      0.00000000000000E+00   0.00000000000000E+00   0.00000000000000E+00   0.00000000000000E+00   0.00000000000000E+00
     -1.90548358244581E-17   1.60000000000000E-01   1.60000000000000E-01   0.00000000000000E+00   0.00000000000000E+00
      9.69319935715068E-13   5.32069618378402E-15   9.74640631898852E-13   1.40318651693503E-17   1.40000000000000E-01
      1.40000000000000E-01   0.00000000000000E+00   0.00000000000000E+00   0.00000000000000E+00   0.00000000000000E+00
      0.00000000000000E+00   1.59177757590692E-17
      2.00000000000000E-01
      0.00000000000000E+00   0.00000000000000E+00   0.00000000000000E+00   0.00000000000000E+00  -1.59661884716650E-13
     -7.29467075207684E-13  -8.89128959924335E-13  -1.09391269509941E-17   8.00000000000000E-02   8.00000000000000E-02
      0.00000000000000E+00   0.00000000000000E+00   0.00000000000000E+00   0.00000000000000E+00   0.00000000000000E+00
     -1.79182341382959E-17   1.60000000000000E-01   1.60000000000000E-01   0.00000000000000E+00   0.00000000000000E+00
      8.83836879709732E-13   5.29208021460279E-15   8.89128959924335E-13   1.39887719070974E-17   1.40000000000000E-01
      1.40000000000000E-01   0.00000000000000E+00   0.00000000000000E+00   0.00000000000000E+00   0.00000000000000E+00
      0.00000000000000E+00   1.48685891821926E-17
      2.10000000000000E-01
      0.00000000000000E+00   0.00000000000000E+00   0.00000000000000E+00   0.00000000000000E+00  -1.60860422587571E-13
     -6.52343998987760E-13  -8.13204421575331E-13  -1.09834164808628E-17   8.40000000000000E-02   8.40000000000000E-02
      0.00000000000000E+00   0.00000000000000E+00   0.00000000000000E+00   0.00000000000000E+00   0.00000000000000E+00
     -1.67816445514880E-17   1.60000000000000E-01   1.60000000000000E-01   0.00000000000000E+00   0.00000000000000E+00
      8.07940930098880E-13   5.26349147645038E-15   8.13204421575330E-13   1.39456705185633E-17   1.40000000000000E-01
      1.40000000000000E-01   0.00000000000000E+00   0.00000000000000E+00   0.00000000000000E+00   0.00000000000000E+00
      0.00000000000000E+00   1.38193905137875E-17
      2.20000000000000E-01
      0.00000000000000E+00   0.00000000000000E+00   0.00000000000000E+00   0.00000000000000E+00  -1.62062068671091E-13
     -5.83835072475577E-13  -7.45897141146668E-13  -1.10276743713697E-17   8.80000000000000E-02   8.80000000000000E-02
      0.00000000000000E+00   0.00000000000000E+00   0.00000000000000E+00   0.00000000000000E+00   0.00000000000000E+00
     -1.56450666456570E-17   1.60000000000000E-01   1.60000000000000E-01   0.00000000000000E+00   0.00000000000000E+00
      7.40662210605555E-13   5.23493054111340E-15   7.45897141146668E-13   1.39025608455286E-17   1.40000000000000E-01
      1.40000000000000E-01   0.00000000000000E+00   0.00000000000000E+00   0.00000000000000E+00   0.00000000000000E+00
      0.00000000000000E+00   1.27701801714981E-17
      2.30000000000000E-01
      0.00000000000000E+00   0.00000000000000E+00   0.00000000000000E+00   0.00000000000000E+00  -1.63266790943304E-13
     -5.23059949404434E-13  -6.86326740347738E-13  -1.10719012846918E-17   9.20000000000000E-02   9.20000000000000E-02
      0.00000000000000E+00   0.00000000000000E+00   0.00000000000000E+00   0.00000000000000E+00   0.00000000000000E+00
     -1.45085000091262E-17   1.60000000000000E-01   1.60000000000000E-01   0.00000000000000E+00   0.00000000000000E+00
      6.81120342379475E-13   5.20639796826307E-15   6.86326740347738E-13   1.38594427274852E-17   1.40000000000000E-01
      1.40000000000000E-01   0.00000000000000E+00   0.00000000000000E+00   0.00000000000000E+00   0.00000000000000E+00
      0.00000000000000E+00   1.17209585663327E-17
      2.40000000000000E-01
      0.00000000000000E+00   0.00000000000000E+00   0.00000000000000E+00   0.00000000000000E+00  -1.64474557596497E-13
     -4.69220813055104E-13  -6.33695370651601E-13  -1.11160978677568E-17   9.60000000000000E-02   9.60000000000000E-02
      0.00000000000000E+00   0.00000000000000E+00   0.00000000000000E+00   0.00000000000000E+00   0.00000000000000E+00
     -1.33719442366633E-17   1.60000000000000E-01   1.60000000000000E-01   0.00000000000000E+00   0.00000000000000E+00
      6.28517476403637E-13   5.17789424796358E-15   6.33695370651601E-13   1.38163160015056E-17   1.40000000000000E-01
      1.40000000000000E-01   0.00000000000000E+00   0.00000000000000E+00   0.00000000000000E+00   0.00000000000000E+00
      0.00000000000000E+00   1.06717261029145E-17
      2.50000000000000E-01
      0.00000000000000E+00   0.00000000000000E+00   0.00000000000000E+00   0.00000000000000E+00  -1.65685337044249E-13
     -4.21595859232280E-13  -5.87281196276529E-13  -1.11602647526102E-17   1.00000000000000E-01   1.00000000000000E-01
      0.00000000000000E+00   0.00000000000000E+00   0.00000000000000E+00   0.00000000000000E+00   0.00000000000000E+00
     -1.22353989292298E-17   1.60000000000000E-01   1.60000000000000E-01   0.00000000000000E+00   0.00000000000000E+00
      5.82131776333546E-13   5.14941994298275E-15   5.87281196276529E-13   1.37731805021131E-17   1.40000000000000E-01
      1.40000000000000E-01   0.00000000000000E+00   0.00000000000000E+00   0.00000000000000E+00   0.00000000000000E+00
      0.00000000000000E+00   9.62248317972684E-18
      2.60000000000000E-01
      0.00000000000000E+00   0.00000000000000E+00   0.00000000000000E+00   0.00000000000000E+00  -1.66899097925753E-13
     -3.79533213429550E-13  -5.46432311355302E-13  -1.12044025567732E-17   1.04000000000000E-01   1.04000000000000E-01
      0.00000000000000E+00   0.00000000000000E+00   0.00000000000000E+00   0.00000000000000E+00   0.00000000000000E+00
     -1.10988636937360E-17   1.60000000000000E-01   1.60000000000000E-01   0.00000000000000E+00   0.00000000000000E+00
      5.41311335863038E-13   5.12097549226330E-15   5.46432311355302E-13   1.37300360611561E-17   1.40000000000000E-01
      1.40000000000000E-01   0.00000000000000E+00   0.00000000000000E+00   0.00000000000000E+00   0.00000000000000E+00
      0.00000000000000E+00   8.57323018935309E-18
      2.70000000000000E-01
      0.00000000000000E+00   0.00000000000000E+00   0.00000000000000E+00   0.00000000000000E+00  -1.68115809110084E-13
     -3.42445267251372E-13  -5.10561076361457E-13  -1.12485118835928E-17   1.08000000000000E-01   1.08000000000000E-01
      0.00000000000000E+00   0.00000000000000E+00   0.00000000000000E+00   0.00000000000000E+00   0.00000000000000E+00
     -9.96233814280238E-18   1.60000000000000E-01   1.60000000000000E-01   0.00000000000000E+00   0.00000000000000E+00
      5.05468514889640E-13   5.09256147181594E-15   5.10561076361456E-13   1.36868825076834E-17   1.40000000000000E-01
      1.40000000000000E-01   0.00000000000000E+00   0.00000000000000E+00   0.00000000000000E+00   0.00000000000000E+00
      0.00000000000000E+00   7.52396751871174E-18
      2.80000000000000E-01
      0.00000000000000E+00   0.00000000000000E+00   0.00000000000000E+00   0.00000000000000E+00  -1.69335439699739E-13
     -3.09803417635411E-13  -4.79138857335149E-13  -1.12925933225830E-17   1.12000000000000E-01   1.12000000000000E-01
      0.00000000000000E+00   0.00000000000000E+00   0.00000000000000E+00   0.00000000000000E+00   0.00000000000000E+00
     -8.82582189452479E-18   1.60000000000000E-01   1.60000000000000E-01   0.00000000000000E+00   0.00000000000000E+00
      4.74074678995446E-13   5.06417833970262E-15   4.79138857335149E-13   1.36437196678215E-17   1.40000000000000E-01
      1.40000000000000E-01   0.00000000000000E+00   0.00000000000000E+00   0.00000000000000E+00   0.00000000000000E+00
      0.00000000000000E+00   6.47469554928631E-18
      2.90000000000000E-01
      0.00000000000000E+00   0.00000000000000E+00   0.00000000000000E+00   0.00000000000000E+00  -1.70557959034151E-13
     -2.81133194630726E-13  -4.51691153664877E-13  -1.13366474497582E-17   1.16000000000000E-01   1.16000000000000E-01
      0.00000000000000E+00   0.00000000000000E+00   0.00000000000000E+00   0.00000000000000E+00   0.00000000000000E+00
     -7.68931457224578E-18   1.60000000000000E-01   1.60000000000000E-01   0.00000000000000E+00   0.00000000000000E+00
      4.46655327071078E-13   5.03582659379952E-15   4.51691153664877E-13   1.36005473646530E-17   1.40000000000000E-01
      1.40000000000000E-01   0.00000000000000E+00   0.00000000000000E+00   0.00000000000000E+00   0.00000000000000E+00
      0.00000000000000E+00   5.42541465735098E-18
      3.00000000000000E-01
      0.00000000000000E+00   0.00000000000000E+00   0.00000000000000E+00   0.00000000000000E+00  -1.71783336692706E-13
     -2.56009762370253E-13  -4.27793099062959E-13  -1.13806748279581E-17   1.20000000000000E-01   1.20000000000000E-01
      0.00000000000000E+00   0.00000000000000E+00   0.00000000000000E+00   0.00000000000000E+00   0.00000000000000E+00
     -6.55281580432989E-18   1.60000000000000E-01   1.60000000000000E-01   0.00000000000000E+00   0.00000000000000E+00
      4.22785592284447E-13   5.00750677851202E-15   4.27793099062959E-13   1.35573654180963E-17   1.40000000000000E-01
      1.40000000000000E-01   0.00000000000000E+00   0.00000000000000E+00   0.00000000000000E+00   0.00000000000000E+00
      0.00000000000000E+00   4.37612521419169E-18
      3.10000000000000E-01
      0.00000000000000E+00   0.00000000000000E+00   0.00000000000000E+00   0.00000000000000E+00  -1.73011542497166E-13
     -2.34053778833348E-13  -4.07065321330514E-13  -1.14246760071654E-17   1.24000000000000E-01   1.24000000000000E-01
      0.00000000000000E+00   0.00000000000000E+00   0.00000000000000E+00   0.00000000000000E+00   0.00000000000000E+00
     -5.41632522394356E-18   1.60000000000000E-01   1.60000000000000E-01   0.00000000000000E+00   0.00000000000000E+00
      4.02086102035681E-13   4.97921929483196E-15   4.07065321330513E-13   1.35141736447858E-17   1.40000000000000E-01
      1.40000000000000E-01   0.00000000000000E+00   0.00000000000000E+00   0.00000000000000E+00   0.00000000000000E+00
      0.00000000000000E+00   3.32682758632322E-18
      3.20000000000000E-01
      0.00000000000000E+00   0.00000000000000E+00   0.00000000000000E+00   0.00000000000000E+00  -1.74242546514708E-13
     -2.14927601210573E-13  -3.89170147725282E-13  -1.14686515248157E-17   1.28000000000000E-01   1.28000000000000E-01
      0.00000000000000E+00   0.00000000000000E+00   0.00000000000000E+00   0.00000000000000E+00   0.00000000000000E+00
     -4.27984246883911E-18   1.60000000000000E-01   1.60000000000000E-01   0.00000000000000E+00   0.00000000000000E+00
      3.84219183042140E-13   4.95096468314148E-15   3.89170147725282E-13   1.34709718579525E-17   1.40000000000000E-01
      1.40000000000000E-01   0.00000000000000E+00   0.00000000000000E+00   0.00000000000000E+00   0.00000000000000E+00
      0.00000000000000E+00   2.27752213570237E-18
      3.30000000000000E-01
      0.00000000000000E+00   0.00000000000000E+00   0.00000000000000E+00   0.00000000000000E+00  -1.75476319059583E-13
     -1.98331822590647E-13  -3.73808141650230E-13  -1.15126019060995E-17   1.32000000000000E-01   1.32000000000000E-01
      0.00000000000000E+00   0.00000000000000E+00   0.00000000000000E+00   0.00000000000000E+00   0.00000000000000E+00
     -3.14336718114278E-18   1.60000000000000E-01   1.60000000000000E-01   0.00000000000000E+00   0.00000000000000E+00
      3.68885398255559E-13   4.92274339467123E-15   3.73808141650230E-13   1.34277598673049E-17   1.40000000000000E-01
      1.40000000000000E-01   0.00000000000000E+00   0.00000000000000E+00   0.00000000000000E+00   0.00000000000000E+00
      0.00000000000000E+00   1.22820921993737E-18
      3.40000000000000E-01
      0.00000000000000E+00   0.00000000000000E+00   0.00000000000000E+00   0.00000000000000E+00  -1.76712830695330E-13
     -1.84002128149766E-13  -3.60714958845097E-13  -1.15565276642572E-17   1.36000000000000E-01   1.36000000000000E-01
      0.00000000000000E+00   0.00000000000000E+00   0.00000000000000E+00   0.00000000000000E+00   0.00000000000000E+00
     -2.00689900714639E-18   1.60000000000000E-01   1.60000000000000E-01   0.00000000000000E+00   0.00000000000000E+00
      3.55820402936020E-13   4.89455590907598E-15   3.60714958845096E-13   1.33845374789098E-17   1.40000000000000E-01
      1.40000000000000E-01   0.00000000000000E+00   0.00000000000000E+00   0.00000000000000E+00   0.00000000000000E+00
      0.00000000000000E+00   1.78889192493875E-19
      3.50000000000000E-01
      0.00000000000000E+00   0.00000000000000E+00   0.00000000000000E+00   0.00000000000000E+00  -1.77952052236375E-13
     -1.71706458354679E-13  -3.49658510591054E-13  -1.16004293008675E-17   1.40000000000000E-01   1.40000000000000E-01
      0.00000000000000E+00   0.00000000000000E+00   0.00000000000000E+00   0.00000000000000E+00   0.00000000000000E+00
     -8.70437597102498E-19   1.60000000000000E-01   1.60000000000000E-01   0.00000000000000E+00   0.00000000000000E+00
      3.44792107877473E-13   4.86640271358098E-15   3.49658510591054E-13   1.33413044950724E-17   1.40000000000000E-01
      1.40000000000000E-01   0.00000000000000E+00   0.00000000000000E+00   0.00000000000000E+00   0.00000000000000E+00
      0.00000000000000E+00  -8.70437597102478E-19
      3.60000000000000E-01
      0.00000000000000E+00   0.00000000000000E+00   0.00000000000000E+00   0.00000000000000E+00  -1.79193954749808E-13
     -1.61242468016816E-13  -3.40436422766624E-13  -1.16443073061275E-17   1.44000000000000E-01   1.44000000000000E-01
      0.00000000000000E+00   0.00000000000000E+00   0.00000000000000E+00   0.00000000000000E+00   0.00000000000000E+00
      2.66017394977040E-19   1.60000000000000E-01   1.60000000000000E-01   0.00000000000000E+00   0.00000000000000E+00
      3.35598138505747E-13   4.83828426087708E-15   3.40436422766624E-13   1.32980607142169E-17   1.40000000000000E-01
      1.40000000000000E-01   0.00000000000000E+00   0.00000000000000E+00   0.00000000000000E+00   0.00000000000000E+00
      0.00000000000000E+00  -1.91977080306652E-18
      3.70000000000000E-01
      0.00000000000000E+00   0.00000000000000E+00   0.00000000000000E+00   0.00000000000000E+00  -1.80438509556289E-13