DF-ISE text

Info {
  version   = 1.0
  type      = xyplot
  datasets  = [
    "time"
    "source OuterVoltage" "source InnerVoltage" "source QuasiFermiPotential" "source DisplacementCurrent" "source eCurrent"
    "source hCurrent" "source TotalCurrent" "source Charge" "topGate OuterVoltage" "topGate InnerVoltage"
    "topGate QuasiFermiPotential" "topGate DisplacementCurrent" "topGate eCurrent" "topGate hCurrent" "topGate TotalCurrent"
    "topGate Charge" "drain OuterVoltage" "drain InnerVoltage" "drain QuasiFermiPotential" "drain DisplacementCurrent"
    "drain eCurrent" "drain hCurrent" "drain TotalCurrent" "drain Charge" "bottomGate OuterVoltage"
    "bottomGate InnerVoltage" "bottomGate QuasiFermiPotential" "bottomGate DisplacementCurrent" "bottomGate eCurrent" "bottomGate hCurrent"
    "bottomGate TotalCurrent" "bottomGate Charge" ]
  functions = [
    Time
    OuterVoltage InnerVoltage QuasiFermiPotential DisplacementCurrent eCurrent
    hCurrent TotalCurrent Charge OuterVoltage InnerVoltage
    QuasiFermiPotential DisplacementCurrent eCurrent hCurrent TotalCurrent
    Charge OuterVoltage InnerVoltage QuasiFermiPotential DisplacementCurrent
    eCurrent hCurrent TotalCurrent Charge OuterVoltage
    InnerVoltage QuasiFermiPotential DisplacementCurrent eCurrent hCurrent
    TotalCurrent Charge ]
}

Data {
      1.00000000000000E-02
      0.00000000000000E+00   0.00000000000000E+00   0.00000000000000E+00   0.00000000000000E+00  -1.04974943544711E-13
     -3.49432915118838E-12  -3.59930409473310E-12  -8.71093906329410E-18   4.00000000000000E-03   4.00000000000000E-03
      0.00000000000000E+00   0.00000000000000E+00   0.00000000000000E+00   0.00000000000000E+00   0.00000000000000E+00
     -7.74156586477936E-18   1.30000000000000E-01   1.30000000000000E-01   0.00000000000000E+00   0.00000000000000E+00
      3.59305651746687E-12   6.24757726622490E-15   3.59930409473310E-12   1.54509132861591E-17   2.00000000000000E-02
      2.00000000000000E-02   0.00000000000000E+00   0.00000000000000E+00   0.00000000000000E+00   0.00000000000000E+00
      0.00000000000000E+00   1.00159164191435E-18
      2.00000000000000E-02
      0.00000000000000E+00   0.00000000000000E+00   0.00000000000000E+00   0.00000000000000E+00  -1.05974762965062E-13
     -3.27532914945424E-12  -3.38130391241930E-12  -8.75803644307886E-18   8.00000000000000E-03   8.00000000000000E-03
      0.00000000000000E+00   0.00000000000000E+00   0.00000000000000E+00   0.00000000000000E+00   0.00000000000000E+00
     -6.60364802916493E-18   1.30000000000000E-01   1.30000000000000E-01   0.00000000000000E+00   0.00000000000000E+00
      3.37508522723254E-12   6.21868518676453E-15   3.38130391241930E-12   1.54079646222395E-17   2.00000000000000E-02
      2.00000000000000E-02   0.00000000000000E+00   0.00000000000000E+00   0.00000000000000E+00   0.00000000000000E+00
      0.00000000000000E+00  -4.62801499956999E-20
      3.00000000000000E-02
      0.00000000000000E+00   0.00000000000000E+00   0.00000000000000E+00   0.00000000000000E+00  -1.06979333872927E-13
     -3.07654536222314E-12  -3.18352469609607E-12  -8.80504053406611E-18   1.20000000000000E-02   1.20000000000000E-02
      0.00000000000000E+00   0.00000000000000E+00   0.00000000000000E+00   0.00000000000000E+00   0.00000000000000E+00
     -5.46577686021696E-18   1.30000000000000E-01   1.30000000000000E-01   0.00000000000000E+00   0.00000000000000E+00
      3.17733491794186E-12   6.18977815421202E-15   3.18352469609607E-12   1.53650158237121E-17   2.00000000000000E-02
      2.00000000000000E-02   0.00000000000000E+00   0.00000000000000E+00   0.00000000000000E+00   0.00000000000000E+00
      0.00000000000000E+00  -1.09419842942906E-18
      4.00000000000000E-02
      0.00000000000000E+00   0.00000000000000E+00   0.00000000000000E+00   0.00000000000000E+00  -1.07988626353615E-13
     -2.89632409092392E-12  -3.00431271727754E-12  -8.85195342724389E-18   1.60000000000000E-02   1.60000000000000E-02
      0.00000000000000E+00   0.00000000000000E+00   0.00000000000000E+00   0.00000000000000E+00   0.00000000000000E+00
     -4.32795109634241E-18   1.30000000000000E-01   1.30000000000000E-01   0.00000000000000E+00   0.00000000000000E+00
      2.99815185802912E-12   6.16085924841901E-15   3.00431271727754E-12   1.53220664766721E-17   2.00000000000000E-02
      2.00000000000000E-02   0.00000000000000E+00   0.00000000000000E+00   0.00000000000000E+00   0.00000000000000E+00
      0.00000000000000E+00  -2.14216195308584E-18
      5.00000000000000E-02
      0.00000000000000E+00   0.00000000000000E+00   0.00000000000000E+00   0.00000000000000E+00  -1.09002609977140E-13
     -2.73314198227751E-12  -2.84214459225465E-12  -8.89877716580071E-18   2.00000000000000E-02   2.00000000000000E-02
      0.00000000000000E+00   0.00000000000000E+00   0.00000000000000E+00   0.00000000000000E+00   0.00000000000000E+00
     -3.19016951248930E-18   1.30000000000000E-01   1.30000000000000E-01   0.00000000000000E+00   0.00000000000000E+00
      2.83601266004336E-12   6.13193221128722E-15   2.84214459225465E-12   1.52791161907789E-17   2.00000000000000E-02
      2.00000000000000E-02   0.00000000000000E+00   0.00000000000000E+00   0.00000000000000E+00   0.00000000000000E+00
      0.00000000000000E+00  -3.19016951248886E-18
      6.00000000000000E-02
      0.00000000000000E+00   0.00000000000000E+00   0.00000000000000E+00   0.00000000000000E+00  -1.10021253829860E-13
     -2.58559718792073E-12  -2.69561844175059E-12  -8.94551374613607E-18   2.40000000000000E-02   2.40000000000000E-02
      0.00000000000000E+00   0.00000000000000E+00   0.00000000000000E+00   0.00000000000000E+00   0.00000000000000E+00
     -2.05243091860471E-18   1.30000000000000E-01   1.30000000000000E-01   0.00000000000000E+00   0.00000000000000E+00
      2.68951544471001E-12   6.10299704057955E-15   2.69561844175059E-12   1.52361645973369E-17   2.00000000000000E-02
      2.00000000000000E-02   0.00000000000000E+00   0.00000000000000E+00   0.00000000000000E+00   0.00000000000000E+00
      0.00000000000000E+00  -4.23821993259613E-18
      7.00000000000000E-02
      0.00000000000000E+00   0.00000000000000E+00   0.00000000000000E+00   0.00000000000000E+00  -1.11044526544853E-13
     -2.45240101605894E-12  -2.56344554260380E-12  -8.99216511885615E-18   2.80000000000000E-02   2.80000000000000E-02
      0.00000000000000E+00   0.00000000000000E+00   0.00000000000000E+00   0.00000000000000E+00   0.00000000000000E+00
     -9.14734158178435E-19   1.30000000000000E-01   1.30000000000000E-01   0.00000000000000E+00   0.00000000000000E+00
      2.55737148584907E-12   6.07405675472341E-15   2.56344554260380E-12   1.51932113475203E-17   2.00000000000000E-02
      2.00000000000000E-02   0.00000000000000E+00   0.00000000000000E+00   0.00000000000000E+00   0.00000000000000E+00
      0.00000000000000E+00  -5.28631207048568E-18
      8.00000000000000E-02
      0.00000000000000E+00   0.00000000000000E+00   0.00000000000000E+00   0.00000000000000E+00  -1.12072396331064E-13
     -2.33237004134392E-12  -2.44444243767499E-12  -9.03873318975419E-18   3.20000000000000E-02   3.20000000000000E-02
      0.00000000000000E+00   0.00000000000000E+00   0.00000000000000E+00   0.00000000000000E+00   0.00000000000000E+00
      2.22921893133374E-19   1.30000000000000E-01   1.30000000000000E-01   0.00000000000000E+00   0.00000000000000E+00
      2.43839732071616E-12   6.04511695882229E-15   2.44444243767499E-12   1.51502561107286E-17   2.00000000000000E-02
      2.00000000000000E-02   0.00000000000000E+00   0.00000000000000E+00   0.00000000000000E+00   0.00000000000000E+00
      0.00000000000000E+00  -6.33444481410778E-18
      9.00000000000000E-02
      0.00000000000000E+00   0.00000000000000E+00   0.00000000000000E+00   0.00000000000000E+00  -1.13104831001157E-13
     -2.22441865384907E-12  -2.33752348485023E-12  -9.08521982077556E-18   3.60000000000000E-02   3.60000000000000E-02
      0.00000000000000E+00   0.00000000000000E+00   0.00000000000000E+00   0.00000000000000E+00   0.00000000000000E+00
      1.36053832881030E-18   1.30000000000000E-01   1.30000000000000E-01   0.00000000000000E+00   0.00000000000000E+00
      2.33150731022439E-12   6.01617462584508E-15   2.33752348485023E-12   1.51072985730654E-17   2.00000000000000E-02
      2.00000000000000E-02   0.00000000000000E+00   0.00000000000000E+00   0.00000000000000E+00   0.00000000000000E+00
      0.00000000000000E+00  -7.38261708110013E-18
      1.00000000000000E-01
      0.00000000000000E+00   0.00000000000000E+00   0.00000000000000E+00   0.00000000000000E+00  -1.14141797998425E-13
     -2.12755207023989E-12  -2.24169386823831E-12  -9.13162683096746E-18   4.00000000000000E-02   4.00000000000000E-02
      0.00000000000000E+00   0.00000000000000E+00   0.00000000000000E+00   0.00000000000000E+00   0.00000000000000E+00
      2.49811621270075E-18   1.30000000000000E-01   1.30000000000000E-01   0.00000000000000E+00   0.00000000000000E+00
      2.23570663345276E-12   5.98723478555078E-15   2.24169386823831E-12   1.50643384359285E-17   2.00000000000000E-02
      2.00000000000000E-02   0.00000000000000E+00   0.00000000000000E+00   0.00000000000000E+00   0.00000000000000E+00
      0.00000000000000E+00  -8.43082781766179E-18
      1.10000000000000E-01
      0.00000000000000E+00   0.00000000000000E+00   0.00000000000000E+00   0.00000000000000E+00  -1.15183264422467E-13
     -2.04085973473342E-12  -2.15604299915589E-12  -9.17795599741284E-18   4.40000000000000E-02   4.40000000000000E-02
      0.00000000000000E+00   0.00000000000000E+00   0.00000000000000E+00   0.00000000000000E+00   0.00000000000000E+00
      3.63565658019059E-18   1.30000000000000E-01   1.30000000000000E-01   0.00000000000000E+00   0.00000000000000E+00
      2.15008470085140E-12   5.95829830448612E-15   2.15604299915589E-12   1.50213754147043E-17   2.00000000000000E-02
      2.00000000000000E-02   0.00000000000000E+00   0.00000000000000E+00   0.00000000000000E+00   0.00000000000000E+00
      0.00000000000000E+00  -9.47907599748205E-18
      1.20000000000000E-01
      0.00000000000000E+00   0.00000000000000E+00   0.00000000000000E+00   0.00000000000000E+00  -1.16229197053918E-13
     -1.96350914089651E-12  -2.07973833795042E-12  -9.22420905614892E-18   4.80000000000000E-02   4.80000000000000E-02
      0.00000000000000E+00   0.00000000000000E+00   0.00000000000000E+00   0.00000000000000E+00   0.00000000000000E+00
      4.77316043931198E-18   1.30000000000000E-01   1.30000000000000E-01   0.00000000000000E+00   0.00000000000000E+00
      2.07380897061733E-12   5.92936733309899E-15   2.07973833795042E-12   1.49784092375575E-17   2.00000000000000E-02
      2.00000000000000E-02   0.00000000000000E+00   0.00000000000000E+00   0.00000000000000E+00   0.00000000000000E+00
      0.00000000000000E+00  -1.05273606207205E-17
      1.30000000000000E-01
      0.00000000000000E+00   0.00000000000000E+00   0.00000000000000E+00   0.00000000000000E+00  -1.17279562378168E-13
     -1.89474003367203E-12  -2.01201959605020E-12  -9.27038770306976E-18   5.20000000000000E-02   5.20000000000000E-02
      0.00000000000000E+00   0.00000000000000E+00   0.00000000000000E+00   0.00000000000000E+00   0.00000000000000E+00
      5.91062877179619E-18   1.30000000000000E-01   1.30000000000000E-01   0.00000000000000E+00   0.00000000000000E+00
      2.00611915283655E-12   5.90044321365148E-15   2.01201959605020E-12   1.49354396443089E-17   2.00000000000000E-02
      2.00000000000000E-02   0.00000000000000E+00   0.00000000000000E+00   0.00000000000000E+00   0.00000000000000E+00
      0.00000000000000E+00  -1.15756807130353E-17
      1.40000000000000E-01
      0.00000000000000E+00   0.00000000000000E+00   0.00000000000000E+00   0.00000000000000E+00  -1.18334326608123E-13
     -1.83385898599630E-12  -1.95219331260442E-12  -9.31649359481325E-18   5.60000000000000E-02   5.60000000000000E-02
      0.00000000000000E+00   0.00000000000000E+00   0.00000000000000E+00   0.00000000000000E+00   0.00000000000000E+00
      7.04806253407451E-18   1.30000000000000E-01   1.30000000000000E-01   0.00000000000000E+00   0.00000000000000E+00
      1.94632178617005E-12   5.87152643437134E-15   1.95219331260442E-12   1.48924663853947E-17   2.00000000000000E-02
      2.00000000000000E-02   0.00000000000000E+00   0.00000000000000E+00   0.00000000000000E+00   0.00000000000000E+00
      0.00000000000000E+00  -1.26240353246560E-17
      1.50000000000000E-01
      0.00000000000000E+00   0.00000000000000E+00   0.00000000000000E+00   0.00000000000000E+00  -1.19393455706154E-13
     -1.78023433594723E-12  -1.89962779165338E-12  -9.36252834963244E-18   6.00000000000000E-02   6.00000000000000E-02
      0.00000000000000E+00   0.00000000000000E+00   0.00000000000000E+00   0.00000000000000E+00   0.00000000000000E+00
      8.18546265823042E-18   1.30000000000000E-01   1.30000000000000E-01   0.00000000000000E+00   0.00000000000000E+00
      1.89378517210204E-12   5.84261955134333E-15   1.89962779165338E-12   1.48494892209007E-17   2.00000000000000E-02
      2.00000000000000E-02   0.00000000000000E+00   0.00000000000000E+00   0.00000000000000E+00   0.00000000000000E+00
      0.00000000000000E+00  -1.36724235294987E-17
      1.60000000000000E-01
      0.00000000000000E+00   0.00000000000000E+00   0.00000000000000E+00   0.00000000000000E+00  -1.20456915405007E-13
     -1.73329145961482E-12  -1.85374837501982E-12  -9.40849354825103E-18   6.40000000000000E-02   6.40000000000000E-02
      0.00000000000000E+00   0.00000000000000E+00   0.00000000000000E+00   0.00000000000000E+00   0.00000000000000E+00
      9.32283005290643E-18   1.30000000000000E-01   1.30000000000000E-01   0.00000000000000E+00   0.00000000000000E+00
      1.84793465206912E-12   5.81372295070606E-15   1.85374837501982E-12   1.48065079196650E-17   2.00000000000000E-02
      2.00000000000000E-02   0.00000000000000E+00   0.00000000000000E+00   0.00000000000000E+00   0.00000000000000E+00
      0.00000000000000E+00  -1.47208444243204E-17
      1.70000000000000E-01
      0.00000000000000E+00   0.00000000000000E+00   0.00000000000000E+00   0.00000000000000E+00  -1.21524671228122E-13
     -1.69250838082091E-12  -1.81403305204904E-12  -9.45439073470342E-18   6.80000000000000E-02   6.80000000000000E-02
      0.00000000000000E+00   0.00000000000000E+00   0.00000000000000E+00   0.00000000000000E+00   0.00000000000000E+00
      1.04601656041685E-17   1.30000000000000E-01   1.30000000000000E-01   0.00000000000000E+00   0.00000000000000E+00
      1.80824821314876E-12   5.78483890027655E-15   1.81403305204904E-12   1.47635222584456E-17   2.00000000000000E-02
      2.00000000000000E-02   0.00000000000000E+00   0.00000000000000E+00   0.00000000000000E+00   0.00000000000000E+00
      0.00000000000000E+00  -1.57692971279107E-17
      1.80000000000000E-01
      0.00000000000000E+00   0.00000000000000E+00   0.00000000000000E+00   0.00000000000000E+00  -1.22596688508950E-13
     -1.65741168764651E-12  -1.78000837615546E-12  -9.50022141715903E-18   7.20000000000000E-02   7.20000000000000E-02
      0.00000000000000E+00   0.00000000000000E+00   0.00000000000000E+00   0.00000000000000E+00   0.00000000000000E+00
      1.15974701763308E-17   1.30000000000000E-01   1.30000000000000E-01   0.00000000000000E+00   0.00000000000000E+00
      1.77425240840179E-12   5.75596775366787E-15   1.78000837615546E-12   1.47205320211455E-17   2.00000000000000E-02
      2.00000000000000E-02   0.00000000000000E+00   0.00000000000000E+00   0.00000000000000E+00   0.00000000000000E+00
      0.00000000000000E+00  -1.68177807803174E-17
      1.90000000000000E-01
      0.00000000000000E+00   0.00000000000000E+00   0.00000000000000E+00   0.00000000000000E+00  -1.23672932409712E-13
     -1.62757275657948E-12  -1.75124568898920E-12  -9.54598706873118E-18   7.60000000000000E-02   7.60000000000000E-02
      0.00000000000000E+00   0.00000000000000E+00   0.00000000000000E+00   0.00000000000000E+00   0.00000000000000E+00
      1.27347446127436E-17   1.30000000000000E-01   1.30000000000000E-01   0.00000000000000E+00   0.00000000000000E+00
      1.74551857843828E-12   5.72711055091710E-15   1.75124568898920E-12   1.46775369980928E-17   2.00000000000000E-02
      2.00000000000000E-02   0.00000000000000E+00   0.00000000000000E+00   0.00000000000000E+00   0.00000000000000E+00
      0.00000000000000E+00  -1.78662945421052E-17
      2.00000000000000E-01
      0.00000000000000E+00   0.00000000000000E+00   0.00000000000000E+00   0.00000000000000E+00  -1.24753367939372E-13
     -1.60260426212905E-12  -1.72735763006842E-12  -9.59168912827073E-18   8.00000000000000E-02   8.00000000000000E-02
      0.00000000000000E+00   0.00000000000000E+00   0.00000000000000E+00   0.00000000000000E+00   0.00000000000000E+00
      1.38719897365459E-17   1.30000000000000E-01   1.30000000000000E-01   0.00000000000000E+00   0.00000000000000E+00
      1.72165936130471E-12   5.69826876371231E-15   1.72735763006842E-12   1.46345369853701E-17   2.00000000000000E-02
      2.00000000000000E-02   0.00000000000000E+00   0.00000000000000E+00   0.00000000000000E+00   0.00000000000000E+00
      0.00000000000000E+00  -1.89148375936452E-17
      2.10000000000000E-01
      0.00000000000000E+00   0.00000000000000E+00   0.00000000000000E+00   0.00000000000000E+00  -1.25837959970952E-13
     -1.58215696109955E-12  -1.70799492107050E-12  -9.63732900114419E-18   8.40000000000000E-02   8.40000000000000E-02
      0.00000000000000E+00   0.00000000000000E+00   0.00000000000000E+00   0.00000000000000E+00   0.00000000000000E+00
      1.50092063513863E-17   1.30000000000000E-01   1.30000000000000E-01   0.00000000000000E+00   0.00000000000000E+00
      1.70232547837311E-12   5.66944269738836E-15   1.70799492107050E-12   1.45915317841901E-17   2.00000000000000E-02
      2.00000000000000E-02   0.00000000000000E+00   0.00000000000000E+00   0.00000000000000E+00   0.00000000000000E+00
      0.00000000000000E+00  -1.99634091344322E-17
      2.20000000000000E-01
      0.00000000000000E+00   0.00000000000000E+00   0.00000000000000E+00   0.00000000000000E+00  -1.26926673258338E-13
     -1.56591674468558E-12  -1.69284341794392E-12  -9.68290805999692E-18   8.80000000000000E-02   8.80000000000000E-02
      0.00000000000000E+00   0.00000000000000E+00   0.00000000000000E+00   0.00000000000000E+00   0.00000000000000E+00
      1.61463952421127E-17   1.30000000000000E-01   1.30000000000000E-01   0.00000000000000E+00   0.00000000000000E+00
      1.68720278454640E-12   5.64063339751503E-15   1.69284341794392E-12   1.45485212003138E-17   2.00000000000000E-02
      2.00000000000000E-02   0.00000000000000E+00   0.00000000000000E+00   0.00000000000000E+00   0.00000000000000E+00
      0.00000000000000E+00  -2.10120083824296E-17
      2.30000000000000E-01
      0.00000000000000E+00   0.00000000000000E+00   0.00000000000000E+00   0.00000000000000E+00  -1.28019472452480E-13
     -1.55360194131613E-12  -1.68162141376861E-12  -9.72842764550113E-18   9.20000000000000E-02   9.20000000000000E-02
      0.00000000000000E+00   0.00000000000000E+00   0.00000000000000E+00   0.00000000000000E+00   0.00000000000000E+00
      1.72835571754339E-17   1.30000000000000E-01   1.30000000000000E-01   0.00000000000000E+00   0.00000000000000E+00
      1.67600957177603E-12   5.61184199257591E-15   1.68162141376861E-12   1.45055050435074E-17   2.00000000000000E-02
      2.00000000000000E-02   0.00000000000000E+00   0.00000000000000E+00   0.00000000000000E+00   0.00000000000000E+00
      0.00000000000000E+00  -2.20606345734402E-17
      2.40000000000000E-01
      0.00000000000000E+00   0.00000000000000E+00   0.00000000000000E+00   0.00000000000000E+00  -1.29116322117014E-13
     -1.54496086290315E-12  -1.67407718502016E-12  -9.77388906708914E-18   9.60000000000000E-02   9.60000000000000E-02
      0.00000000000000E+00   0.00000000000000E+00   0.00000000000000E+00   0.00000000000000E+00   0.00000000000000E+00
      1.84206929005542E-17   1.30000000000000E-01   1.30000000000000E-01   0.00000000000000E+00   0.00000000000000E+00
      1.66849411561585E-12   5.58306940431695E-15   1.67407718502016E-12   1.44624831270350E-17   2.00000000000000E-02
      2.00000000000000E-02   0.00000000000000E+00   0.00000000000000E+00   0.00000000000000E+00   0.00000000000000E+00
      0.00000000000000E+00  -2.31092869605000E-17
      2.50000000000000E-01
      0.00000000000000E+00   0.00000000000000E+00   0.00000000000000E+00   0.00000000000000E+00  -1.30217186743504E-13
     -1.53976958382343E-12  -1.66998677056693E-12  -9.81929360367187E-18   1.00000000000000E-01   1.00000000000000E-01
      0.00000000000000E+00   0.00000000000000E+00   0.00000000000000E+00   0.00000000000000E+00   0.00000000000000E+00
      1.95578031497824E-17   1.30000000000000E-01   1.30000000000000E-01   0.00000000000000E+00   0.00000000000000E+00
      1.66443245530627E-12   5.55431526065991E-15   1.66998677056693E-12   1.44194552671846E-17   2.00000000000000E-02
      2.00000000000000E-02   0.00000000000000E+00   0.00000000000000E+00   0.00000000000000E+00   0.00000000000000E+00
      0.00000000000000E+00  -2.41579648132951E-17
      2.60000000000000E-01
      0.00000000000000E+00   0.00000000000000E+00   0.00000000000000E+00   0.00000000000000E+00  -1.31322030766432E-13
     -1.53782994941941E-12  -1.66915198018584E-12  -9.86464250434272E-18   1.04000000000000E-01   1.04000000000000E-01
      0.00000000000000E+00   0.00000000000000E+00   0.00000000000000E+00   0.00000000000000E+00   0.00000000000000E+00
      2.06948886391181E-17   1.30000000000000E-01   1.30000000000000E-01   0.00000000000000E+00   0.00000000000000E+00
      1.66362639869210E-12   5.52558149373881E-15   1.66915198018584E-12   1.43764212828248E-17   2.00000000000000E-02
      2.00000000000000E-02   0.00000000000000E+00   0.00000000000000E+00   0.00000000000000E+00   0.00000000000000E+00
      0.00000000000000E+00  -2.52066674176001E-17
      2.70000000000000E-01
      0.00000000000000E+00   0.00000000000000E+00   0.00000000000000E+00   0.00000000000000E+00  -1.32430818577383E-13
     -1.53896779355576E-12  -1.67139861213314E-12  -9.90993698906712E-18   1.08000000000000E-01   1.08000000000000E-01
      0.00000000000000E+00   0.00000000000000E+00   0.00000000000000E+00   0.00000000000000E+00   0.00000000000000E+00
      2.18319500688146E-17   1.30000000000000E-01   1.30000000000000E-01   0.00000000000000E+00   0.00000000000000E+00
      1.66590174412021E-12   5.49686801293319E-15   1.67139861213314E-12   1.43333809949885E-17   2.00000000000000E-02
      2.00000000000000E-02   0.00000000000000E+00   0.00000000000000E+00   0.00000000000000E+00   0.00000000000000E+00
      0.00000000000000E+00  -2.62553940747360E-17
      2.80000000000000E-01
      0.00000000000000E+00   0.00000000000000E+00   0.00000000000000E+00   0.00000000000000E+00  -1.33543514539455E-13
     -1.54303137344627E-12  -1.67657488798572E-12  -9.95517824935793E-18   1.12000000000000E-01   1.12000000000000E-01
      0.00000000000000E+00   0.00000000000000E+00   0.00000000000000E+00   0.00000000000000E+00   0.00000000000000E+00
      2.29689881239216E-17   1.30000000000000E-01   1.30000000000000E-01   0.00000000000000E+00   0.00000000000000E+00
      1.67110671234076E-12   5.46817564496206E-15   1.67657488798572E-12   1.42903342264838E-17   2.00000000000000E-02
      2.00000000000000E-02   0.00000000000000E+00   0.00000000000000E+00   0.00000000000000E+00   0.00000000000000E+00
      0.00000000000000E+00  -2.73041441010475E-17
      2.90000000000000E-01
      0.00000000000000E+00   0.00000000000000E+00   0.00000000000000E+00   0.00000000000000E+00  -1.34660083000956E-13
     -1.54989000444271E-12  -1.68455008744367E-12  -1.00003674489366E-17   1.16000000000000E-01   1.16000000000000E-01
      0.00000000000000E+00   0.00000000000000E+00   0.00000000000000E+00   0.00000000000000E+00   0.00000000000000E+00
      2.41060034748078E-17   1.30000000000000E-01   1.30000000000000E-01   0.00000000000000E+00   0.00000000000000E+00
      1.67911058233551E-12   5.43950510815722E-15   1.68455008744367E-12   1.42472808015272E-17   2.00000000000000E-02
      2.00000000000000E-02   0.00000000000000E+00   0.00000000000000E+00   0.00000000000000E+00   0.00000000000000E+00
      0.00000000000000E+00  -2.83529168273984E-17
      3.00000000000000E-01
      0.00000000000000E+00   0.00000000000000E+00   0.00000000000000E+00   0.00000000000000E+00  -1.35780488309162E-13
     -1.55943289465964E-12  -1.69521338296880E-12  -1.00455057243806E-17   1.20000000000000E-01   1.20000000000000E-01
      0.00000000000000E+00   0.00000000000000E+00   0.00000000000000E+00   0.00000000000000E+00   0.00000000000000E+00
      2.52429967776649E-17   1.30000000000000E-01   1.30000000000000E-01   0.00000000000000E+00   0.00000000000000E+00
      1.68980252592316E-12   5.41085704563894E-15   1.69521338296880E-12   1.42042205453991E-17   2.00000000000000E-02
      2.00000000000000E-02   0.00000000000000E+00   0.00000000000000E+00   0.00000000000000E+00   0.00000000000000E+00
      0.00000000000000E+00  -2.94017115986833E-17
      3.10000000000000E-01
      0.00000000000000E+00   0.00000000000000E+00   0.00000000000000E+00   0.00000000000000E+00  -1.36904694823679E-13
     -1.57156817362517E-12  -1.70847286844885E-12  -1.00905941857575E-17   1.24000000000000E-01   1.24000000000000E-01
      0.00000000000000E+00   0.00000000000000E+00   0.00000000000000E+00   0.00000000000000E+00   0.00000000000000E+00
      2.63799686749945E-17   1.30000000000000E-01   1.30000000000000E-01   0.00000000000000E+00   0.00000000000000E+00
      1.70309063693345E-12   5.38223151539527E-15   1.70847286844884E-12   1.41611532841193E-17   2.00000000000000E-02
      2.00000000000000E-02   0.00000000000000E+00   0.00000000000000E+00   0.00000000000000E+00   0.00000000000000E+00
      0.00000000000000E+00  -3.04505277733563E-17
      3.20000000000000E-01
      0.00000000000000E+00   0.00000000000000E+00   0.00000000000000E+00   0.00000000000000E+00  -1.38032666929770E-13
     -1.58622211402079E-12  -1.72425478095056E-12  -1.01356339172447E-17   1.28000000000000E-01   1.28000000000000E-01
      0.00000000000000E+00   0.00000000000000E+00   0.00000000000000E+00   0.00000000000000E+00   0.00000000000000E+00
      2.75169197960776E-17   1.30000000000000E-01   1.30000000000000E-01   0.00000000000000E+00   0.00000000000000E+00
      1.71890115169856E-12   5.35362925200212E-15   1.72425478095056E-12   1.41180788441411E-17   2.00000000000000E-02
      2.00000000000000E-02   0.00000000000000E+00   0.00000000000000E+00   0.00000000000000E+00   0.00000000000000E+00
      0.00000000000000E+00  -3.14993647229740E-17
      3.30000000000000E-01
      0.00000000000000E+00   0.00000000000000E+00   0.00000000000000E+00   0.00000000000000E+00  -1.39164369051512E-13
     -1.60333854011969E-12  -1.74250290917120E-12  -1.01806259777371E-17   1.32000000000000E-01   1.32000000000000E-01
      0.00000000000000E+00   0.00000000000000E+00   0.00000000000000E+00   0.00000000000000E+00   0.00000000000000E+00
      2.86538507574293E-17   1.30000000000000E-01   1.30000000000000E-01   0.00000000000000E+00   0.00000000000000E+00
      1.73717785857514E-12   5.32505059606060E-15   1.74250290917120E-12   1.40749970520607E-17   2.00000000000000E-02
      2.00000000000000E-02   0.00000000000000E+00   0.00000000000000E+00   0.00000000000000E+00   0.00000000000000E+00
      0.00000000000000E+00  -3.25482218317530E-17
      3.40000000000000E-01
      0.00000000000000E+00   0.00000000000000E+00   0.00000000000000E+00   0.00000000000000E+00  -1.40299765664948E-13
     -1.62287842555929E-12  -1.76317819122423E-12  -1.02255714014404E-17   1.36000000000000E-01   1.36000000000000E-01
      0.00000000000000E+00   0.00000000000000E+00   0.00000000000000E+00   0.00000000000000E+00   0.00000000000000E+00
      2.97907621632381E-17   1.30000000000000E-01   1.30000000000000E-01   0.00000000000000E+00   0.00000000000000E+00
      1.75788169517961E-12   5.29649604461969E-15   1.76317819122423E-12   1.40319077343444E-17   2.00000000000000E-02
      2.00000000000000E-02   0.00000000000000E+00   0.00000000000000E+00   0.00000000000000E+00   0.00000000000000E+00
      0.00000000000000E+00  -3.35970984961421E-17
      3.50000000000000E-01
      0.00000000000000E+00   0.00000000000000E+00   0.00000000000000E+00   0.00000000000000E+00  -1.41438821310908E-13
     -1.64481967774075E-12  -1.78625849905166E-12  -1.02704711984528E-17   1.40000000000000E-01   1.40000000000000E-01
      0.00000000000000E+00   0.00000000000000E+00   0.00000000000000E+00   0.00000000000000E+00   0.00000000000000E+00
      3.09276546057918E-17   1.30000000000000E-01   1.30000000000000E-01   0.00000000000000E+00   0.00000000000000E+00
      1.78099053298796E-12   5.26796606370259E-15   1.78625849905166E-12   1.39888107170670E-17   2.00000000000000E-02
      2.00000000000000E-02   0.00000000000000E+00   0.00000000000000E+00   0.00000000000000E+00   0.00000000000000E+00
      0.00000000000000E+00  -3.46459941244059E-17
      3.60000000000000E-01
      0.00000000000000E+00   0.00000000000000E+00   0.00000000000000E+00   0.00000000000000E+00  -1.42581500607919E-13
     -1.66915711002556E-12  -1.81173861063348E-12  -1.03153263553331E-17   1.44000000000000E-01   1.44000000000000E-01
      0.00000000000000E+00   0.00000000000000E+00   0.00000000000000E+00   0.00000000000000E+00   0.00000000000000E+00
      3.20645286658896E-17   1.30000000000000E-01   1.30000000000000E-01   0.00000000000000E+00   0.00000000000000E+00
      1.80649914991563E-12   5.23946071784675E-15   1.81173861063348E-12   1.39457058256653E-17   2.00000000000000E-02
      2.00000000000000E-02   0.00000000000000E+00   0.00000000000000E+00   0.00000000000000E+00   0.00000000000000E+00
      0.00000000000000E+00  -3.56949081362218E-17
      3.70000000000000E-01
      0.00000000000000E+00   0.00000000000000E+00   0.00000000000000E+00   0.00000000000000E+00  -1.43727768265246E-13