DF-ISE text

Info {
  version   = 1.0
  type      = xyplot
  datasets  = [
    "time"
    "source OuterVoltage" "source InnerVoltage" "source QuasiFermiPotential" "source DisplacementCurrent" "source eCurrent"
    "source hCurrent" "source TotalCurrent" "source Charge" "topGate OuterVoltage" "topGate InnerVoltage"
    "topGate QuasiFermiPotential" "topGate DisplacementCurrent" "topGate eCurrent" "topGate hCurrent" "topGate TotalCurrent"
    "topGate Charge" "drain OuterVoltage" "drain InnerVoltage" "drain QuasiFermiPotential" "drain DisplacementCurrent"
    "drain eCurrent" "drain hCurrent" "drain TotalCurrent" "drain Charge" "bottomGate OuterVoltage"
    "bottomGate InnerVoltage" "bottomGate QuasiFermiPotential" "bottomGate DisplacementCurrent" "bottomGate eCurrent" "bottomGate hCurrent"
    "bottomGate TotalCurrent" "bottomGate Charge" ]
  functions = [
    Time
    OuterVoltage InnerVoltage QuasiFermiPotential DisplacementCurrent eCurrent
    hCurrent TotalCurrent Charge OuterVoltage InnerVoltage
    QuasiFermiPotential DisplacementCurrent eCurrent hCurrent TotalCurrent
    Charge OuterVoltage InnerVoltage QuasiFermiPotential DisplacementCurrent
    eCurrent hCurrent TotalCurrent Charge OuterVoltage
    InnerVoltage QuasiFermiPotential DisplacementCurrent eCurrent hCurrent
    TotalCurrent Charge ]
}

Data {
      1.00000000000000E-02
      0.00000000000000E+00   0.00000000000000E+00   0.00000000000000E+00   0.00000000000000E+00  -1.67232946814364E-13
     -3.38986639600848E-10  -3.39153872547662E-10  -1.12045060532306E-17   4.00000000000000E-03   4.00000000000000E-03
      0.00000000000000E+00   0.00000000000000E+00   0.00000000000000E+00   0.00000000000000E+00   0.00000000000000E+00
     -6.81003401251962E-17   3.80000000000000E-01   3.80000000000000E-01   0.00000000000000E+00   0.00000000000000E+00
      3.39147158427320E-10   6.71412034289682E-15   3.39153872547663E-10   1.84436811174726E-17   2.40000000000000E-01
      2.40000000000000E-01   0.00000000000000E+00   0.00000000000000E+00   0.00000000000000E+00   0.00000000000000E+00
      0.00000000000000E+00   6.08611650609541E-17
      2.00000000000000E-02
      0.00000000000000E+00   0.00000000000000E+00   0.00000000000000E+00   0.00000000000000E+00  -1.68453329037182E-13
     -3.18608235146580E-10  -3.18776688475617E-10  -1.12486153751475E-17   8.00000000000000E-03   8.00000000000000E-03
      0.00000000000000E+00   0.00000000000000E+00   0.00000000000000E+00   0.00000000000000E+00   0.00000000000000E+00
     -6.69640494962776E-17   3.80000000000000E-01   3.80000000000000E-01   0.00000000000000E+00   0.00000000000000E+00
      3.18769878634066E-10   6.80984155162775E-15   3.18776688475617E-10   1.84009975507926E-17   2.40000000000000E-01
      2.40000000000000E-01   0.00000000000000E+00   0.00000000000000E+00   0.00000000000000E+00   0.00000000000000E+00
      0.00000000000000E+00   5.98116673206326E-17
      3.00000000000000E-02
      0.00000000000000E+00   0.00000000000000E+00   0.00000000000000E+00   0.00000000000000E+00  -1.69676524028208E-13
     -2.99324777644150E-10  -2.99494454168178E-10  -1.12926968073142E-17   1.20000000000000E-02   1.20000000000000E-02
      0.00000000000000E+00   0.00000000000000E+00   0.00000000000000E+00   0.00000000000000E+00   0.00000000000000E+00
     -6.58277720337625E-17   3.80000000000000E-01   3.80000000000000E-01   0.00000000000000E+00   0.00000000000000E+00
      2.99487557680465E-10   6.89648771329614E-15   2.99494454168178E-10   1.83583124126139E-17   2.40000000000000E-01
      2.40000000000000E-01   0.00000000000000E+00   0.00000000000000E+00   0.00000000000000E+00   0.00000000000000E+00
      0.00000000000000E+00   5.87621564284627E-17
      4.00000000000000E-02
      0.00000000000000E+00   0.00000000000000E+00   0.00000000000000E+00   0.00000000000000E+00  -1.70902512029691E-13
     -2.81086163700178E-10  -2.81257066212208E-10  -1.13367509259316E-17   1.60000000000000E-02   1.60000000000000E-02
      0.00000000000000E+00   0.00000000000000E+00   0.00000000000000E+00   0.00000000000000E+00   0.00000000000000E+00
     -6.46915074327873E-17   3.80000000000000E-01   3.80000000000000E-01   0.00000000000000E+00   0.00000000000000E+00
      2.81250091535205E-10   6.97467700203157E-15   2.81257066212207E-10   1.83156256705370E-17   2.40000000000000E-01
      2.40000000000000E-01   0.00000000000000E+00   0.00000000000000E+00   0.00000000000000E+00   0.00000000000000E+00
      0.00000000000000E+00   5.77126326881819E-17
      5.00000000000000E-02
      0.00000000000000E+00   0.00000000000000E+00   0.00000000000000E+00   0.00000000000000E+00  -1.72131272475005E-13
     -2.63844109368578E-10  -2.64016240641053E-10  -1.13807782940149E-17   2.00000000000000E-02   2.00000000000000E-02
      0.00000000000000E+00   0.00000000000000E+00   0.00000000000000E+00   0.00000000000000E+00   0.00000000000000E+00
     -6.35552553952867E-17   3.80000000000000E-01   3.80000000000000E-01   0.00000000000000E+00   0.00000000000000E+00
      2.64009195652323E-10   7.04498873083594E-15   2.64016240641054E-10   1.82729372924854E-17   2.40000000000000E-01
      2.40000000000000E-01   0.00000000000000E+00   0.00000000000000E+00   0.00000000000000E+00   0.00000000000000E+00
      0.00000000000000E+00   5.66630963968162E-17
      6.00000000000000E-02
      0.00000000000000E+00   0.00000000000000E+00   0.00000000000000E+00   0.00000000000000E+00  -1.73362784091071E-13
     -2.47552105205904E-10  -2.47725467989996E-10  -1.14247794617114E-17   2.40000000000000E-02   2.40000000000000E-02
      0.00000000000000E+00   0.00000000000000E+00   0.00000000000000E+00   0.00000000000000E+00   0.00000000000000E+00
     -6.24190156298016E-17   3.80000000000000E-01   3.80000000000000E-01   0.00000000000000E+00   0.00000000000000E+00
      2.47718360024601E-10   7.10796539542652E-15   2.47725467989996E-10   1.82302472466478E-17   2.40000000000000E-01
      2.40000000000000E-01   0.00000000000000E+00   0.00000000000000E+00   0.00000000000000E+00   0.00000000000000E+00
      0.00000000000000E+00   5.56135478448652E-17
      7.00000000000000E-02
      0.00000000000000E+00   0.00000000000000E+00   0.00000000000000E+00   0.00000000000000E+00  -1.74597024991203E-13
     -2.32165371730426E-10  -2.32339968755417E-10  -1.14687549666107E-17   2.80000000000000E-02   2.80000000000000E-02
      0.00000000000000E+00   0.00000000000000E+00   0.00000000000000E+00   0.00000000000000E+00   0.00000000000000E+00
     -6.12827878512938E-17   3.80000000000000E-01   3.80000000000000E-01   0.00000000000000E+00   0.00000000000000E+00
      2.32332804640553E-10   7.16411486406690E-15   2.32339968755417E-10   1.81875555014236E-17   2.40000000000000E-01
      2.40000000000000E-01   0.00000000000000E+00   0.00000000000000E+00   0.00000000000000E+00   0.00000000000000E+00
      0.00000000000000E+00   5.45639873164809E-17
      8.00000000000000E-02
      0.00000000000000E+00   0.00000000000000E+00   0.00000000000000E+00   0.00000000000000E+00  -1.75833972759257E-13
     -2.17640815295266E-10  -2.17816649268025E-10  -1.15127053340479E-17   3.20000000000000E-02   3.20000000000000E-02
      0.00000000000000E+00   0.00000000000000E+00   0.00000000000000E+00   0.00000000000000E+00   0.00000000000000E+00
     -6.01465717809669E-17   3.80000000000000E-01   3.80000000000000E-01   0.00000000000000E+00   0.00000000000000E+00
      2.17809435355642E-10   7.21391238270222E-15   2.17816649268025E-10   1.81448620253731E-17   2.40000000000000E-01
      2.40000000000000E-01   0.00000000000000E+00   0.00000000000000E+00   0.00000000000000E+00   0.00000000000000E+00
      0.00000000000000E+00   5.35144150896417E-17
      9.00000000000000E-02
      0.00000000000000E+00   0.00000000000000E+00   0.00000000000000E+00   0.00000000000000E+00  -1.77073604525853E-13
     -2.03936984386626E-10  -2.04114057991152E-10  -1.15566310773991E-17   3.60000000000000E-02   3.60000000000000E-02
      0.00000000000000E+00   0.00000000000000E+00   0.00000000000000E+00   0.00000000000000E+00   0.00000000000000E+00
     -5.90103671460917E-17   3.80000000000000E-01   3.80000000000000E-01   0.00000000000000E+00   0.00000000000000E+00
      2.04106800188698E-10   7.25780245456092E-15   2.04114057991152E-10   1.81021667871695E-17   2.40000000000000E-01
      2.40000000000000E-01   0.00000000000000E+00   0.00000000000000E+00   0.00000000000000E+00   0.00000000000000E+00
      0.00000000000000E+00   5.24648314363213E-17
      1.00000000000000E-01
      0.00000000000000E+00   0.00000000000000E+00   0.00000000000000E+00   0.00000000000000E+00  -1.78315897037380E-13
     -1.91014026358397E-10  -1.91192342255435E-10  -1.16005326983696E-17   4.00000000000000E-02   4.00000000000000E-02
      0.00000000000000E+00   0.00000000000000E+00   0.00000000000000E+00   0.00000000000000E+00   0.00000000000000E+00
     -5.78741736798377E-17   3.80000000000000E-01   3.80000000000000E-01   0.00000000000000E+00   0.00000000000000E+00
      1.91185046054751E-10   7.29620068401892E-15   1.91192342255435E-10   1.80594697555549E-17   2.40000000000000E-01
      2.40000000000000E-01   0.00000000000000E+00   0.00000000000000E+00   0.00000000000000E+00   0.00000000000000E+00
      0.00000000000000E+00   5.14152366226525E-17
      1.10000000000000E-01
      0.00000000000000E+00   0.00000000000000E+00   0.00000000000000E+00   0.00000000000000E+00  -1.79560826718468E-13
     -1.78833644614431E-10  -1.79013205441150E-10  -1.16444106872755E-17   4.40000000000000E-02   4.40000000000000E-02
      0.00000000000000E+00   0.00000000000000E+00   0.00000000000000E+00   0.00000000000000E+00   0.00000000000000E+00
     -5.67379911211091E-17   3.80000000000000E-01   3.80000000000000E-01   0.00000000000000E+00   0.00000000000000E+00
      1.79005875945738E-10   7.32949541185767E-15   1.79013205441150E-10   1.80167708992980E-17   2.40000000000000E-01
      2.40000000000000E-01   0.00000000000000E+00   0.00000000000000E+00   0.00000000000000E+00   0.00000000000000E+00
      0.00000000000000E+00   5.03656309090866E-17
      1.20000000000000E-01
      0.00000000000000E+00   0.00000000000000E+00   0.00000000000000E+00   0.00000000000000E+00  -1.80808369728538E-13
     -1.67359056250413E-10  -1.67539864620142E-10  -1.16882655233181E-17   4.80000000000000E-02   4.80000000000000E-02
      0.00000000000000E+00   0.00000000000000E+00   0.00000000000000E+00   0.00000000000000E+00   0.00000000000000E+00
     -5.56018192143858E-17   3.80000000000000E-01   3.80000000000000E-01   0.00000000000000E+00   0.00000000000000E+00
      1.67532506570715E-10   7.35804942687118E-15   1.67539864620142E-10   1.79740701871556E-17   2.40000000000000E-01
      2.40000000000000E-01   0.00000000000000E+00   0.00000000000000E+00   0.00000000000000E+00   0.00000000000000E+00
      0.00000000000000E+00   4.93160145505483E-17
      1.30000000000000E-01
      0.00000000000000E+00   0.00000000000000E+00   0.00000000000000E+00   0.00000000000000E+00  -1.82058502012870E-13
     -1.56554950166775E-10  -1.56737008668787E-10  -1.17320976748517E-17   5.20000000000000E-02   5.20000000000000E-02
      0.00000000000000E+00   0.00000000000000E+00   0.00000000000000E+00   0.00000000000000E+00   0.00000000000000E+00
     -5.44656577095694E-17   3.80000000000000E-01   3.80000000000000E-01   0.00000000000000E+00   0.00000000000000E+00
      1.56729626467354E-10   7.38220143340618E-15   1.56737008668787E-10   1.79313675878348E-17   2.40000000000000E-01
      2.40000000000000E-01   0.00000000000000E+00   0.00000000000000E+00   0.00000000000000E+00   0.00000000000000E+00
      0.00000000000000E+00   4.82663877965863E-17
      1.40000000000000E-01
      0.00000000000000E+00   0.00000000000000E+00   0.00000000000000E+00   0.00000000000000E+00  -1.83311199348793E-13
     -1.46387445664839E-10  -1.46570756864188E-10  -1.17759075996450E-17   5.60000000000000E-02   5.60000000000000E-02
      0.00000000000000E+00   0.00000000000000E+00   0.00000000000000E+00   0.00000000000000E+00   0.00000000000000E+00
     -5.33295063618331E-17   3.80000000000000E-01   3.80000000000000E-01   0.00000000000000E+00   0.00000000000000E+00
      1.46563354596646E-10   7.40226754172594E-15   1.46570756864188E-10   1.78886630699584E-17   2.40000000000000E-01
      2.40000000000000E-01   0.00000000000000E+00   0.00000000000000E+00   0.00000000000000E+00   0.00000000000000E+00
      0.00000000000000E+00   4.72167508915197E-17
      1.50000000000000E-01
      0.00000000000000E+00   0.00000000000000E+00   0.00000000000000E+00   0.00000000000000E+00  -1.84566437387446E-13
     -1.36824051538027E-10  -1.37008617975414E-10  -1.18196957451363E-17   6.00000000000000E-02   6.00000000000000E-02
      0.00000000000000E+00   0.00000000000000E+00   0.00000000000000E+00   0.00000000000000E+00   0.00000000000000E+00
     -5.21933649314756E-17   3.80000000000000E-01   3.80000000000000E-01   0.00000000000000E+00   0.00000000000000E+00
      1.37001199432773E-10   7.41854264135976E-15   1.37008617975414E-10   1.78459566020316E-17   2.40000000000000E-01
      2.40000000000000E-01   0.00000000000000E+00   0.00000000000000E+00   0.00000000000000E+00   0.00000000000000E+00
      0.00000000000000E+00   4.61671040745802E-17
      1.60000000000000E-01
      0.00000000000000E+00   0.00000000000000E+00   0.00000000000000E+00   0.00000000000000E+00  -1.85824191691377E-13
     -1.27833625670189E-10  -1.28019449861880E-10  -1.18634625486813E-17   6.40000000000000E-02   6.40000000000000E-02
      0.00000000000000E+00   0.00000000000000E+00   0.00000000000000E+00   0.00000000000000E+00   0.00000000000000E+00
     -5.10572331837806E-17   3.80000000000000E-01   3.80000000000000E-01   0.00000000000000E+00   0.00000000000000E+00
      1.28012018560184E-10   7.43130169643605E-15   1.28019449861880E-10   1.78032481524108E-17   2.40000000000000E-01
      2.40000000000000E-01   0.00000000000000E+00   0.00000000000000E+00   0.00000000000000E+00   0.00000000000000E+00
      0.00000000000000E+00   4.51174475800512E-17
      1.70000000000000E-01
      0.00000000000000E+00   0.00000000000000E+00   0.00000000000000E+00   0.00000000000000E+00  -1.87084437768541E-13
     -1.19386335153159E-10  -1.19573419590927E-10  -1.19072084377969E-17   6.80000000000000E-02   6.80000000000000E-02
      0.00000000000000E+00   0.00000000000000E+00   0.00000000000000E+00   0.00000000000000E+00   0.00000000000000E+00
     -4.99211108888783E-17   3.80000000000000E-01   3.80000000000000E-01   0.00000000000000E+00   0.00000000000000E+00
      1.19565978789908E-10   7.44080101894788E-15   1.19573419590927E-10   1.77605376892732E-17   2.40000000000000E-01
      2.40000000000000E-01   0.00000000000000E+00   0.00000000000000E+00   0.00000000000000E+00   0.00000000000000E+00
      0.00000000000000E+00   4.40677816374021E-17
      1.80000000000000E-01
      0.00000000000000E+00   0.00000000000000E+00   0.00000000000000E+00   0.00000000000000E+00  -1.88347151102906E-13
     -1.11453616935349E-10  -1.11641964086452E-10  -1.19509338303968E-17   7.20000000000000E-02   7.20000000000000E-02
      0.00000000000000E+00   0.00000000000000E+00   0.00000000000000E+00   0.00000000000000E+00   0.00000000000000E+00
     -4.87849978216119E-17   3.80000000000000E-01   3.80000000000000E-01   0.00000000000000E+00   0.00000000000000E+00
      1.11634516807108E-10   7.44727934405122E-15   1.11641964086452E-10   1.77178251805889E-17   2.40000000000000E-01
      2.40000000000000E-01   0.00000000000000E+00   0.00000000000000E+00   0.00000000000000E+00   0.00000000000000E+00
      0.00000000000000E+00   4.30181064714197E-17
      1.90000000000000E-01
      0.00000000000000E+00   0.00000000000000E+00   0.00000000000000E+00   0.00000000000000E+00  -1.89612307182010E-13
     -1.04008139013698E-10  -1.04197751320880E-10  -1.19946391350228E-17   7.60000000000000E-02   7.60000000000000E-02
      0.00000000000000E+00   0.00000000000000E+00   0.00000000000000E+00   0.00000000000000E+00   0.00000000000000E+00
     -4.76488937614074E-17   3.80000000000000E-01   3.80000000000000E-01   0.00000000000000E+00   0.00000000000000E+00
      1.04190300361832E-10   7.45095904780705E-15   1.04197751320880E-10   1.76751105940936E-17   2.40000000000000E-01
      2.40000000000000E-01   0.00000000000000E+00   0.00000000000000E+00   0.00000000000000E+00   0.00000000000000E+00
      0.00000000000000E+00   4.19684223023367E-17
      2.00000000000000E-01
      0.00000000000000E+00   0.00000000000000E+00   0.00000000000000E+00   0.00000000000000E+00  -1.90879881521768E-13
     -9.70237621803607E-11  -9.72146420618825E-11  -1.20383247510700E-17   8.00000000000000E-02   8.00000000000000E-02
      0.00000000000000E+00   0.00000000000000E+00   0.00000000000000E+00   0.00000000000000E+00   0.00000000000000E+00
     -4.65127984921474E-17   3.80000000000000E-01   3.80000000000000E-01   0.00000000000000E+00   0.00000000000000E+00
      9.72071900148166E-11   7.45204706581242E-15   9.72146420618824E-11   1.76323938972622E-17   2.40000000000000E-01
      2.40000000000000E-01   0.00000000000000E+00   0.00000000000000E+00   0.00000000000000E+00   0.00000000000000E+00
      0.00000000000000E+00   4.09187293459551E-17
      2.10000000000000E-01
      0.00000000000000E+00   0.00000000000000E+00   0.00000000000000E+00   0.00000000000000E+00  -1.92149849688745E-13
     -9.04755023363940E-11  -9.06676521860828E-11  -1.20819910690060E-17   8.40000000000000E-02   8.40000000000000E-02
      0.00000000000000E+00   0.00000000000000E+00   0.00000000000000E+00   0.00000000000000E+00   0.00000000000000E+00
     -4.53767118020468E-17   3.80000000000000E-01   3.80000000000000E-01   0.00000000000000E+00   0.00000000000000E+00
      9.06602014500856E-11   7.45073599713461E-15   9.06676521860828E-11   1.75896750572842E-17   2.40000000000000E-01
      2.40000000000000E-01   0.00000000000000E+00   0.00000000000000E+00   0.00000000000000E+00   0.00000000000000E+00
      0.00000000000000E+00   3.98690278137687E-17
      2.20000000000000E-01
      0.00000000000000E+00   0.00000000000000E+00   0.00000000000000E+00   0.00000000000000E+00  -1.93422187320159E-13
     -8.43394933835224E-11  -8.45329155708426E-11  -1.21256384705857E-17   8.80000000000000E-02   8.80000000000000E-02
      0.00000000000000E+00   0.00000000000000E+00   0.00000000000000E+00   0.00000000000000E+00   0.00000000000000E+00
     -4.42406334835340E-17   3.80000000000000E-01   3.80000000000000E-01   0.00000000000000E+00   0.00000000000000E+00
      8.45254683659206E-11   7.44720492198076E-15   8.45329155708425E-11   1.75469540410395E-17   2.40000000000000E-01
      2.40000000000000E-01   0.00000000000000E+00   0.00000000000000E+00   0.00000000000000E+00   0.00000000000000E+00
      0.00000000000000E+00   3.88193179130802E-17
      2.30000000000000E-01
      0.00000000000000E+00   0.00000000000000E+00   0.00000000000000E+00   0.00000000000000E+00  -1.94696870141826E-13
     -7.85929507058087E-11  -7.87876475759505E-11  -1.21692673290597E-17   9.20000000000000E-02   9.20000000000000E-02
      0.00000000000000E+00   0.00000000000000E+00   0.00000000000000E+00   0.00000000000000E+00   0.00000000000000E+00
     -4.31045633331329E-17   3.80000000000000E-01   3.80000000000000E-01   0.00000000000000E+00   0.00000000000000E+00
      7.87802059556160E-11   7.44162033458265E-15   7.87876475759506E-11   1.75042308150754E-17   2.40000000000000E-01
      2.40000000000000E-01   0.00000000000000E+00   0.00000000000000E+00   0.00000000000000E+00   0.00000000000000E+00
      0.00000000000000E+00   3.77695998471172E-17
      2.40000000000000E-01
      0.00000000000000E+00   0.00000000000000E+00   0.00000000000000E+00   0.00000000000000E+00  -1.95973873984175E-13
     -7.32141352521702E-11  -7.34101091261544E-11  -1.22128780093784E-17   9.60000000000000E-02   9.60000000000000E-02
      0.00000000000000E+00   0.00000000000000E+00   0.00000000000000E+00   0.00000000000000E+00   0.00000000000000E+00
     -4.19685011513500E-17   3.80000000000000E-01   3.80000000000000E-01   0.00000000000000E+00   0.00000000000000E+00
      7.34026749891985E-11   7.43413695602280E-15   7.34101091261545E-11   1.74615053455841E-17   2.40000000000000E-01
      2.40000000000000E-01   0.00000000000000E+00   0.00000000000000E+00   0.00000000000000E+00   0.00000000000000E+00
      0.00000000000000E+00   3.67198738151442E-17
      2.50000000000000E-01
      0.00000000000000E+00   0.00000000000000E+00   0.00000000000000E+00   0.00000000000000E+00  -1.97253174796608E-13
     -6.81823182307830E-11  -6.83795714055796E-11  -1.22564708683903E-17   1.00000000000000E-01   1.00000000000000E-01
      0.00000000000000E+00   0.00000000000000E+00   0.00000000000000E+00   0.00000000000000E+00   0.00000000000000E+00
     -4.08324467425628E-17   3.80000000000000E-01   3.80000000000000E-01   0.00000000000000E+00   0.00000000000000E+00
      6.83721465070820E-11   7.42489849755850E-15   6.83795714055796E-11   1.74187775983810E-17   2.40000000000000E-01
      2.40000000000000E-01   0.00000000000000E+00   0.00000000000000E+00   0.00000000000000E+00   0.00000000000000E+00
      0.00000000000000E+00   3.56701400125721E-17
      2.60000000000000E-01
      0.00000000000000E+00   0.00000000000000E+00   0.00000000000000E+00   0.00000000000000E+00  -1.98534748660276E-13
     -6.34777464260494E-11  -6.36762811747097E-11  -1.23000462550364E-17   1.04000000000000E-01   1.04000000000000E-01
      0.00000000000000E+00   0.00000000000000E+00   0.00000000000000E+00   0.00000000000000E+00   0.00000000000000E+00
     -3.96963999149121E-17   3.80000000000000E-01   3.80000000000000E-01   0.00000000000000E+00   0.00000000000000E+00
      6.36688671363320E-11   7.41403837768086E-15   6.36762811747097E-11   1.73760475388837E-17   2.40000000000000E-01
      2.40000000000000E-01   0.00000000000000E+00   0.00000000000000E+00   0.00000000000000E+00   0.00000000000000E+00
      0.00000000000000E+00   3.46203986310648E-17
      2.70000000000000E-01
      0.00000000000000E+00   0.00000000000000E+00   0.00000000000000E+00   0.00000000000000E+00  -1.99818571799458E-13
     -5.90816081485917E-11  -5.92814267203912E-11  -1.23436045105389E-17   1.08000000000000E-01   1.08000000000000E-01
      0.00000000000000E+00   0.00000000000000E+00   0.00000000000000E+00   0.00000000000000E+00   0.00000000000000E+00
     -3.85603604801962E-17   3.80000000000000E-01   3.80000000000000E-01   0.00000000000000E+00   0.00000000000000E+00
      5.92740250399560E-11   7.40168043517413E-15   5.92814267203912E-11   1.73333151320913E-17   2.40000000000000E-01
      2.40000000000000E-01   0.00000000000000E+00   0.00000000000000E+00   0.00000000000000E+00   0.00000000000000E+00
      0.00000000000000E+00   3.35706498586438E-17
      2.80000000000000E-01
      0.00000000000000E+00   0.00000000000000E+00   0.00000000000000E+00   0.00000000000000E+00  -2.01104620591649E-13
     -5.49759998282749E-11  -5.51771044488665E-11  -1.23871459685856E-17   1.12000000000000E-01   1.12000000000000E-01
      0.00000000000000E+00   0.00000000000000E+00   0.00000000000000E+00   0.00000000000000E+00   0.00000000000000E+00
     -3.74243282537685E-17   3.80000000000000E-01   3.80000000000000E-01   0.00000000000000E+00   0.00000000000000E+00
      5.51697165093127E-11   7.38793955388436E-15   5.51771044488666E-11   1.72905803425646E-17   2.40000000000000E-01
      2.40000000000000E-01   0.00000000000000E+00   0.00000000000000E+00   0.00000000000000E+00   0.00000000000000E+00
      0.00000000000000E+00   3.25208938797896E-17
      2.90000000000000E-01
      0.00000000000000E+00   0.00000000000000E+00   0.00000000000000E+00   0.00000000000000E+00  -2.02392871576504E-13
     -5.11438932600929E-11  -5.13462861316694E-11  -1.24306709555097E-17   1.16000000000000E-01   1.16000000000000E-01
      0.00000000000000E+00   0.00000000000000E+00   0.00000000000000E+00   0.00000000000000E+00   0.00000000000000E+00
     -3.62883030544371E-17   3.80000000000000E-01   3.80000000000000E-01   0.00000000000000E+00   0.00000000000000E+00
      5.13389132093988E-11   7.37292227054238E-15   5.13462861316694E-11   1.72478431344060E-17   2.40000000000000E-01
      2.40000000000000E-01   0.00000000000000E+00   0.00000000000000E+00   0.00000000000000E+00   0.00000000000000E+00
      0.00000000000000E+00   3.14711308755407E-17
      3.00000000000000E-01
      0.00000000000000E+00   0.00000000000000E+00   0.00000000000000E+00   0.00000000000000E+00  -2.03683301463710E-13
     -4.75691035123089E-11  -4.77727868137726E-11  -1.24741797904651E-17   1.20000000000000E-01   1.20000000000000E-01
      0.00000000000000E+00   0.00000000000000E+00   0.00000000000000E+00   0.00000000000000E+00   0.00000000000000E+00
     -3.51522847043670E-17   3.80000000000000E-01   3.80000000000000E-01   0.00000000000000E+00   0.00000000000000E+00
      4.77654300864358E-11   7.35672733679431E-15   4.77727868137726E-11   1.72051034712411E-17   2.40000000000000E-01
      2.40000000000000E-01   0.00000000000000E+00   0.00000000000000E+00   0.00000000000000E+00   0.00000000000000E+00
      0.00000000000000E+00   3.04213610235911E-17
      3.10000000000000E-01
      0.00000000000000E+00   0.00000000000000E+00   0.00000000000000E+00   0.00000000000000E+00  -2.04975887139923E-13
     -4.42362575059208E-11  -4.44412333930607E-11  -1.25176727855975E-17   1.24000000000000E-01   1.24000000000000E-01
      0.00000000000000E+00   0.00000000000000E+00   0.00000000000000E+00   0.00000000000000E+00   0.00000000000000E+00
     -3.40162730289848E-17   3.80000000000000E-01   3.80000000000000E-01   0.00000000000000E+00   0.00000000000000E+00
      4.44338939467956E-11   7.33944626509823E-15   4.44412333930607E-11   1.71623613161986E-17   2.40000000000000E-01
      2.40000000000000E-01   0.00000000000000E+00   0.00000000000000E+00   0.00000000000000E+00   0.00000000000000E+00
      0.00000000000000E+00   2.93715844983838E-17
      3.20000000000000E-01
      0.00000000000000E+00   0.00000000000000E+00   0.00000000000000E+00   0.00000000000000E+00  -2.06270605674814E-13
     -4.11307632740741E-11  -4.13370338797489E-11  -1.25611502462113E-17   1.28000000000000E-01   1.28000000000000E-01
      0.00000000000000E+00   0.00000000000000E+00   0.00000000000000E+00   0.00000000000000E+00   0.00000000000000E+00
     -3.28802678568852E-17   3.80000000000000E-01   3.80000000000000E-01   0.00000000000000E+00   0.00000000000000E+00
      4.13297127159339E-11   7.32116381500152E-15   4.13370338797489E-11   1.71196166318926E-17   2.40000000000000E-01
      2.40000000000000E-01   0.00000000000000E+00   0.00000000000000E+00   0.00000000000000E+00   0.00000000000000E+00
      0.00000000000000E+00   2.83218014712040E-17
      3.30000000000000E-01
      0.00000000000000E+00   0.00000000000000E+00   0.00000000000000E+00   0.00000000000000E+00  -2.07567434326332E-13
     -3.82387799097390E-11  -3.84463473440654E-11  -1.26046124709320E-17   1.32000000000000E-01   1.32000000000000E-01
      0.00000000000000E+00   0.00000000000000E+00   0.00000000000000E+00   0.00000000000000E+00   0.00000000000000E+00
     -3.17442690197406E-17   3.80000000000000E-01   3.80000000000000E-01   0.00000000000000E+00   0.00000000000000E+00
      3.84390453855938E-11   7.30195847159417E-15   3.84463473440654E-11   1.70768693804036E-17   2.40000000000000E-01
      2.40000000000000E-01   0.00000000000000E+00   0.00000000000000E+00   0.00000000000000E+00   0.00000000000000E+00
      0.00000000000000E+00   2.72720121102690E-17
      3.40000000000000E-01
      0.00000000000000E+00   0.00000000000000E+00   0.00000000000000E+00   0.00000000000000E+00  -2.08866350545260E-13
     -3.55471882094663E-11  -3.57560545600116E-11  -1.26480597518647E-17   1.36000000000000E-01   1.36000000000000E-01
      0.00000000000000E+00   0.00000000000000E+00   0.00000000000000E+00   0.00000000000000E+00   0.00000000000000E+00
     -3.06082763522117E-17   3.80000000000000E-01   3.80000000000000E-01   0.00000000000000E+00   0.00000000000000E+00
      3.57487726571356E-11   7.28190287593365E-15   3.57560545600116E-11   1.70341195232604E-17   2.40000000000000E-01
      2.40000000000000E-01   0.00000000000000E+00   0.00000000000000E+00   0.00000000000000E+00   0.00000000000000E+00
      0.00000000000000E+00   2.62222165808160E-17
      3.50000000000000E-01
      0.00000000000000E+00   0.00000000000000E+00   0.00000000000000E+00   0.00000000000000E+00  -2.10167331979117E-13
     -3.30435620206884E-11  -3.32537293526675E-11  -1.26914923747494E-17   1.40000000000000E-01   1.40000000000000E-01
      0.00000000000000E+00   0.00000000000000E+00   0.00000000000000E+00   0.00000000000000E+00   0.00000000000000E+00
     -2.94722896918614E-17   3.80000000000000E-01   3.80000000000000E-01   0.00000000000000E+00   0.00000000000000E+00
      3.32464682884324E-11   7.26106423508462E-15   3.32537293526675E-11   1.69913670214220E-17   2.40000000000000E-01
      2.40000000000000E-01   0.00000000000000E+00   0.00000000000000E+00   0.00000000000000E+00   0.00000000000000E+00
      0.00000000000000E+00   2.51724150451888E-17
      3.60000000000000E-01
      0.00000000000000E+00   0.00000000000000E+00   0.00000000000000E+00   0.00000000000000E+00  -2.11470356475465E-13
     -3.07161402995791E-11  -3.09276106560546E-11  -1.27349106191110E-17   1.44000000000000E-01   1.44000000000000E-01
      0.00000000000000E+00   0.00000000000000E+00   0.00000000000000E+00   0.00000000000000E+00   0.00000000000000E+00
     -2.83363088790693E-17   3.80000000000000E-01   3.80000000000000E-01   0.00000000000000E+00   0.00000000000000E+00
      3.09203711513354E-11   7.23950471922962E-15   3.09276106560546E-11   1.69486118352592E-17   2.40000000000000E-01
      2.40000000000000E-01   0.00000000000000E+00   0.00000000000000E+00   0.00000000000000E+00   0.00000000000000E+00
      0.00000000000000E+00   2.41226076629211E-17
      3.70000000000000E-01
      0.00000000000000E+00   0.00000000000000E+00   0.00000000000000E+00   0.00000000000000E+00  -2.12775402084686E-13