DF-ISE text

Info {
  version   = 1.0
  type      = xyplot
  datasets  = [
    "time"
    "source OuterVoltage" "source InnerVoltage" "source QuasiFermiPotential" "source DisplacementCurrent" "source eCurrent"
    "source hCurrent" "source TotalCurrent" "source Charge" "topGate OuterVoltage" "topGate InnerVoltage"
    "topGate QuasiFermiPotential" "topGate DisplacementCurrent" "topGate eCurrent" "topGate hCurrent" "topGate TotalCurrent"
    "topGate Charge" "drain OuterVoltage" "drain InnerVoltage" "drain QuasiFermiPotential" "drain DisplacementCurrent"
    "drain eCurrent" "drain hCurrent" "drain TotalCurrent" "drain Charge" "bottomGate OuterVoltage"
    "bottomGate InnerVoltage" "bottomGate QuasiFermiPotential" "bottomGate DisplacementCurrent" "bottomGate eCurrent" "bottomGate hCurrent"
    "bottomGate TotalCurrent" "bottomGate Charge" ]
  functions = [
    Time
    OuterVoltage InnerVoltage QuasiFermiPotential DisplacementCurrent eCurrent
    hCurrent TotalCurrent Charge OuterVoltage InnerVoltage
    QuasiFermiPotential DisplacementCurrent eCurrent hCurrent TotalCurrent
    Charge OuterVoltage InnerVoltage QuasiFermiPotential DisplacementCurrent
    eCurrent hCurrent TotalCurrent Charge OuterVoltage
    InnerVoltage QuasiFermiPotential DisplacementCurrent eCurrent hCurrent
    TotalCurrent Charge ]
}

Data {
      1.00000000000000E-02
      0.00000000000000E+00   0.00000000000000E+00   0.00000000000000E+00   0.00000000000000E+00  -1.98494785298930E-13
     -3.85295201922094E-10  -3.85493696707393E-10  -1.23000364904789E-17   4.00000000000000E-03   4.00000000000000E-03
      0.00000000000000E+00   0.00000000000000E+00   0.00000000000000E+00   0.00000000000000E+00   0.00000000000000E+00
     -9.41273937451023E-17   3.60000000000000E-01   3.60000000000000E-01   0.00000000000000E+00   0.00000000000000E+00
      3.85486457971181E-10   7.23873621313687E-15   3.85493696707394E-10   1.69486148413896E-17   3.40000000000000E-01
      3.40000000000000E-01   0.00000000000000E+00   0.00000000000000E+00   0.00000000000000E+00   0.00000000000000E+00
      0.00000000000000E+00   8.94788153941916E-17
      2.00000000000000E-02
      0.00000000000000E+00   0.00000000000000E+00   0.00000000000000E+00   0.00000000000000E+00  -1.99781998601114E-13
     -3.61562029515038E-10  -3.61761811513639E-10  -1.23435947782761E-17   8.00000000000000E-03   8.00000000000000E-03
      0.00000000000000E+00   0.00000000000000E+00   0.00000000000000E+00   0.00000000000000E+00   0.00000000000000E+00
     -9.29913410927149E-17   3.60000000000000E-01   3.60000000000000E-01   0.00000000000000E+00   0.00000000000000E+00
      3.61754595007113E-10   7.21650652640272E-15   3.61761811513639E-10   1.69058561235677E-17   3.40000000000000E-01
      3.40000000000000E-01   0.00000000000000E+00   0.00000000000000E+00   0.00000000000000E+00   0.00000000000000E+00
      0.00000000000000E+00   8.84290797474233E-17
      3.00000000000000E-02
      0.00000000000000E+00   0.00000000000000E+00   0.00000000000000E+00   0.00000000000000E+00  -2.01071146562777E-13
     -3.39118415938355E-10  -3.39319487084918E-10  -1.23871362667557E-17   1.20000000000000E-02   1.20000000000000E-02
      0.00000000000000E+00   0.00000000000000E+00   0.00000000000000E+00   0.00000000000000E+00   0.00000000000000E+00
     -9.18552954852064E-17   3.60000000000000E-01   3.60000000000000E-01   0.00000000000000E+00   0.00000000000000E+00
      3.39312293417858E-10   7.19366706030479E-15   3.39319487084918E-10   1.68630946883867E-17   3.40000000000000E-01
      3.40000000000000E-01   0.00000000000000E+00   0.00000000000000E+00   0.00000000000000E+00   0.00000000000000E+00
      0.00000000000000E+00   8.73793370635753E-17
      4.00000000000000E-02
      0.00000000000000E+00   0.00000000000000E+00   0.00000000000000E+00   0.00000000000000E+00  -2.02362230599052E-13
     -3.17905441690914E-10  -3.18107803921513E-10  -1.24306612823508E-17   1.60000000000000E-02   1.60000000000000E-02
      0.00000000000000E+00   0.00000000000000E+00   0.00000000000000E+00   0.00000000000000E+00   0.00000000000000E+00
     -9.07192567370439E-17   3.60000000000000E-01   3.60000000000000E-01   0.00000000000000E+00   0.00000000000000E+00
      3.18100633654596E-10   7.17026691705796E-15   3.18107803921513E-10   1.68203304917113E-17   3.40000000000000E-01
      3.40000000000000E-01   0.00000000000000E+00   0.00000000000000E+00   0.00000000000000E+00   0.00000000000000E+00
      0.00000000000000E+00   8.63295875276833E-17
      5.00000000000000E-02
      0.00000000000000E+00   0.00000000000000E+00   0.00000000000000E+00   0.00000000000000E+00  -2.03655250186427E-13
     -2.97866301273283E-10  -2.98069956523470E-10  -1.24741701443104E-17   2.00000000000000E-02   2.00000000000000E-02
      0.00000000000000E+00   0.00000000000000E+00   0.00000000000000E+00   0.00000000000000E+00   0.00000000000000E+00
     -8.95832246660423E-17   3.60000000000000E-01   3.60000000000000E-01   0.00000000000000E+00   0.00000000000000E+00
      2.98062810172002E-10   7.14635146786407E-15   2.98069956523469E-10   1.67775634888874E-17   3.40000000000000E-01
      3.40000000000000E-01   0.00000000000000E+00   0.00000000000000E+00   0.00000000000000E+00   0.00000000000000E+00
      0.00000000000000E+00   8.52798313214654E-17
      6.00000000000000E-02
      0.00000000000000E+00   0.00000000000000E+00   0.00000000000000E+00   0.00000000000000E+00  -2.04950203047836E-13
     -2.78946251075553E-10  -2.79151201278600E-10  -1.25176631648706E-17   2.40000000000000E-02   2.40000000000000E-02
      0.00000000000000E+00   0.00000000000000E+00   0.00000000000000E+00   0.00000000000000E+00   0.00000000000000E+00
     -8.84471990932649E-17   3.60000000000000E-01   3.60000000000000E-01   0.00000000000000E+00   0.00000000000000E+00
      2.79144079315989E-10   7.12196261178280E-15   2.79151201278601E-10   1.67347936347157E-17   3.40000000000000E-01
      3.40000000000000E-01   0.00000000000000E+00   0.00000000000000E+00   0.00000000000000E+00   0.00000000000000E+00
      0.00000000000000E+00   8.42300686234197E-17
      7.00000000000000E-02
      0.00000000000000E+00   0.00000000000000E+00   0.00000000000000E+00   0.00000000000000E+00  -2.06247085319656E-13
     -2.61092557929362E-10  -2.61298805014682E-10  -1.25611406494212E-17   2.80000000000000E-02   2.80000000000000E-02
      0.00000000000000E+00   0.00000000000000E+00   0.00000000000000E+00   0.00000000000000E+00   0.00000000000000E+00
     -8.73111798429254E-17   3.60000000000000E-01   3.60000000000000E-01   0.00000000000000E+00   0.00000000000000E+00
      2.61291707875664E-10   7.09713901799612E-15   2.61298805014682E-10   1.66920208834262E-17   3.40000000000000E-01
      3.40000000000000E-01   0.00000000000000E+00   0.00000000000000E+00   0.00000000000000E+00   0.00000000000000E+00
      0.00000000000000E+00   8.31802996089204E-17
      8.00000000000000E-02
      0.00000000000000E+00   0.00000000000000E+00   0.00000000000000E+00   0.00000000000000E+00  -2.07545891706884E-13
     -2.44254448307701E-10  -2.44461994199408E-10  -1.26046028966692E-17   3.20000000000000E-02   3.20000000000000E-02
      0.00000000000000E+00   0.00000000000000E+00   0.00000000000000E+00   0.00000000000000E+00   0.00000000000000E+00
     -8.61751667422937E-17   3.60000000000000E-01   3.60000000000000E-01   0.00000000000000E+00   0.00000000000000E+00
      2.44454922283012E-10   7.07191639639815E-15   2.44461994199408E-10   1.66492451886522E-17   3.40000000000000E-01
      3.40000000000000E-01   0.00000000000000E+00   0.00000000000000E+00   0.00000000000000E+00   0.00000000000000E+00
      0.00000000000000E+00   8.21305244503107E-17
      9.00000000000000E-02
      0.00000000000000E+00   0.00000000000000E+00   0.00000000000000E+00   0.00000000000000E+00  -2.08846615623430E-13
     -2.28383058159171E-10  -2.28591904774795E-10  -1.26480501987971E-17   3.60000000000000E-02   3.60000000000000E-02
      0.00000000000000E+00   0.00000000000000E+00   0.00000000000000E+00   0.00000000000000E+00   0.00000000000000E+00
     -8.50391596216026E-17   3.60000000000000E-01   3.60000000000000E-01   0.00000000000000E+00   0.00000000000000E+00
      2.28584858447115E-10   7.04632767919897E-15   2.28591904774795E-10   1.66064665034056E-17   3.40000000000000E-01
      3.40000000000000E-01   0.00000000000000E+00   0.00000000000000E+00   0.00000000000000E+00   0.00000000000000E+00
      0.00000000000000E+00   8.10807433169941E-17
      1.00000000000000E-01
      0.00000000000000E+00   0.00000000000000E+00   0.00000000000000E+00   0.00000000000000E+00  -2.10149249321328E-13
     -2.13431383366561E-10  -2.13641532615882E-10  -1.26914828416180E-17   4.00000000000000E-02   4.00000000000000E-02
      0.00000000000000E+00   0.00000000000000E+00   0.00000000000000E+00   0.00000000000000E+00   0.00000000000000E+00
     -8.39031583139577E-17   3.60000000000000E-01   3.60000000000000E-01   0.00000000000000E+00   0.00000000000000E+00
      2.13634512212621E-10   7.02040326121791E-15   2.13641532615882E-10   1.65636847800524E-17   3.40000000000000E-01
      3.40000000000000E-01   0.00000000000000E+00   0.00000000000000E+00   0.00000000000000E+00   0.00000000000000E+00
      0.00000000000000E+00   8.00309563755234E-17
      1.10000000000000E-01
      0.00000000000000E+00   0.00000000000000E+00   0.00000000000000E+00   0.00000000000000E+00  -2.11453784008776E-13
     -1.99354230821956E-10  -1.99565684605965E-10  -1.27349011047266E-17   4.40000000000000E-02   4.40000000000000E-02
      0.00000000000000E+00   0.00000000000000E+00   0.00000000000000E+00   0.00000000000000E+00   0.00000000000000E+00
     -8.27671626552487E-17   3.60000000000000E-01   3.60000000000000E-01   0.00000000000000E+00   0.00000000000000E+00
      1.99558690434798E-10   6.99417116736522E-15   1.99565684605965E-10   1.65208999702875E-17   3.40000000000000E-01
      3.40000000000000E-01   0.00000000000000E+00   0.00000000000000E+00   0.00000000000000E+00   0.00000000000000E+00
      0.00000000000000E+00   7.89811637896878E-17
      1.20000000000000E-01
      0.00000000000000E+00   0.00000000000000E+00   0.00000000000000E+00   0.00000000000000E+00  -2.12760209957250E-13
     -1.86108170113126E-10  -1.86320930323083E-10  -1.27783052616465E-17   4.80000000000000E-02   4.80000000000000E-02
      0.00000000000000E+00   0.00000000000000E+00   0.00000000000000E+00   0.00000000000000E+00   0.00000000000000E+00
     -8.16311724840634E-17   3.60000000000000E-01   3.60000000000000E-01   0.00000000000000E+00   0.00000000000000E+00
      1.86313962665839E-10   6.96765724400718E-15   1.86320930323083E-10   1.64781120251112E-17   3.40000000000000E-01
      3.40000000000000E-01   0.00000000000000E+00   0.00000000000000E+00   0.00000000000000E+00   0.00000000000000E+00
      0.00000000000000E+00   7.79313657205986E-17
      1.30000000000000E-01
      0.00000000000000E+00   0.00000000000000E+00   0.00000000000000E+00   0.00000000000000E+00  -2.14068516600940E-13
     -1.73651485817772E-10  -1.73865554334373E-10  -1.28216955799737E-17   5.20000000000000E-02   5.20000000000000E-02
      0.00000000000000E+00   0.00000000000000E+00   0.00000000000000E+00   0.00000000000000E+00   0.00000000000000E+00
     -8.04951876416026E-17   3.60000000000000E-01   3.60000000000000E-01   0.00000000000000E+00   0.00000000000000E+00
      1.73858613449054E-10   6.94088531918420E-15   1.73865554334373E-10   1.64353208948048E-17   3.40000000000000E-01
      3.40000000000000E-01   0.00000000000000E+00   0.00000000000000E+00   0.00000000000000E+00   0.00000000000000E+00
      0.00000000000000E+00   7.68815623267715E-17
      1.40000000000000E-01
      0.00000000000000E+00   0.00000000000000E+00   0.00000000000000E+00   0.00000000000000E+00  -2.15378692626173E-13
     -1.61944130404196E-10  -1.62159509096822E-10  -1.28650723215169E-17   5.60000000000000E-02   5.60000000000000E-02
      0.00000000000000E+00   0.00000000000000E+00   0.00000000000000E+00   0.00000000000000E+00   0.00000000000000E+00
     -7.93592079715982E-17   3.60000000000000E-01   3.60000000000000E-01   0.00000000000000E+00   0.00000000000000E+00
      1.62152595219466E-10   6.91387735671274E-15   1.62159509096822E-10   1.63925265289063E-17   3.40000000000000E-01
      3.40000000000000E-01   0.00000000000000E+00   0.00000000000000E+00   0.00000000000000E+00   0.00000000000000E+00
      0.00000000000000E+00   7.58317537642089E-17
      1.50000000000000E-01
      0.00000000000000E+00   0.00000000000000E+00   0.00000000000000E+00   0.00000000000000E+00  -2.16690726053914E-13
     -1.50947677738412E-10  -1.51164368464466E-10  -1.29084357424341E-17   6.00000000000000E-02   6.00000000000000E-02
      0.00000000000000E+00   0.00000000000000E+00   0.00000000000000E+00   0.00000000000000E+00   0.00000000000000E+00
     -7.82232333202320E-17   3.60000000000000E-01   3.60000000000000E-01   0.00000000000000E+00   0.00000000000000E+00
      1.51157481810863E-10   6.88665360283476E-15   1.51164368464466E-10   1.63497288761868E-17   3.40000000000000E-01
      3.40000000000000E-01   0.00000000000000E+00   0.00000000000000E+00   0.00000000000000E+00   0.00000000000000E+00
      0.00000000000000E+00   7.47819401864793E-17
      1.60000000000000E-01
      0.00000000000000E+00   0.00000000000000E+00   0.00000000000000E+00   0.00000000000000E+00  -2.18004604314690E-13
     -1.40625277199119E-10  -1.40843281803434E-10  -1.29517860933654E-17   6.40000000000000E-02   6.40000000000000E-02
      0.00000000000000E+00   0.00000000000000E+00   0.00000000000000E+00   0.00000000000000E+00   0.00000000000000E+00
     -7.70872635360566E-17   3.60000000000000E-01   3.60000000000000E-01   0.00000000000000E+00   0.00000000000000E+00
      1.40836422570723E-10   6.85923271061722E-15   1.40843281803434E-10   1.63069278846263E-17   3.40000000000000E-01
      3.40000000000000E-01   0.00000000000000E+00   0.00000000000000E+00   0.00000000000000E+00   0.00000000000000E+00
      0.00000000000000E+00   7.37321217447957E-17
      1.70000000000000E-01
      0.00000000000000E+00   0.00000000000000E+00   0.00000000000000E+00   0.00000000000000E+00  -2.19320314317415E-13
     -1.30941608403232E-10  -1.31160928717549E-10  -1.29951236195634E-17   6.80000000000000E-02   6.80000000000000E-02
      0.00000000000000E+00   0.00000000000000E+00   0.00000000000000E+00   0.00000000000000E+00   0.00000000000000E+00
     -7.59512984699184E-17   3.60000000000000E-01   3.60000000000000E-01   0.00000000000000E+00   0.00000000000000E+00
      1.31154097085681E-10   6.83163186867190E-15   1.31160928717549E-10   1.62641235013899E-17   3.40000000000000E-01
      3.40000000000000E-01   0.00000000000000E+00   0.00000000000000E+00   0.00000000000000E+00   0.00000000000000E+00
      0.00000000000000E+00   7.26822985880918E-17
      1.80000000000000E-01
      0.00000000000000E+00   0.00000000000000E+00   0.00000000000000E+00   0.00000000000000E+00  -2.20637842511890E-13
     -1.21862836545623E-10  -1.22083474388135E-10  -1.30384485610195E-17   7.20000000000000E-02   7.20000000000000E-02
      0.00000000000000E+00   0.00000000000000E+00   0.00000000000000E+00   0.00000000000000E+00   0.00000000000000E+00
     -7.48153379748812E-17   3.60000000000000E-01   3.60000000000000E-01   0.00000000000000E+00   0.00000000000000E+00
      1.22076670521218E-10   6.80386691669821E-15   1.22083474388135E-10   1.62213156728035E-17   3.40000000000000E-01
      3.40000000000000E-01   0.00000000000000E+00   0.00000000000000E+00   0.00000000000000E+00   0.00000000000000E+00
      0.00000000000000E+00   7.16324708630973E-17
      1.90000000000000E-01
      0.00000000000000E+00   0.00000000000000E+00   0.00000000000000E+00   0.00000000000000E+00  -2.21957174945797E-13
     -1.13356568357681E-10  -1.13578525532627E-10  -1.30817611525879E-17   7.60000000000000E-02   7.60000000000000E-02
      0.00000000000000E+00   0.00000000000000E+00   0.00000000000000E+00   0.00000000000000E+00   0.00000000000000E+00
     -7.36793819061527E-17   3.60000000000000E-01   3.60000000000000E-01   0.00000000000000E+00   0.00000000000000E+00
      1.13571749580181E-10   6.77595244601938E-15   1.13578525532627E-10   1.61785043443296E-17   3.40000000000000E-01
      3.40000000000000E-01   0.00000000000000E+00   0.00000000000000E+00   0.00000000000000E+00   0.00000000000000E+00
      0.00000000000000E+00   7.05826387144109E-17
      2.00000000000000E-01
      0.00000000000000E+00   0.00000000000000E+00   0.00000000000000E+00   0.00000000000000E+00  -2.23278297316650E-13
     -1.05391808690066E-10  -1.05615086987382E-10  -1.31250616241055E-17   8.00000000000000E-02   8.00000000000000E-02
      0.00000000000000E+00   0.00000000000000E+00   0.00000000000000E+00   0.00000000000000E+00   0.00000000000000E+00
     -7.25434301210108E-17   3.60000000000000E-01   3.60000000000000E-01   0.00000000000000E+00   0.00000000000000E+00
      1.05608339085482E-10   6.74790189981498E-15   1.05615086987382E-10   1.61356894605434E-17   3.40000000000000E-01
      3.40000000000000E-01   0.00000000000000E+00   0.00000000000000E+00   0.00000000000000E+00   0.00000000000000E+00
      0.00000000000000E+00   6.95328022845729E-17
      2.10000000000000E-01
      0.00000000000000E+00   0.00000000000000E+00   0.00000000000000E+00   0.00000000000000E+00  -2.24601195019700E-13
     -9.79389177256881E-11  -9.81635189207078E-11  -1.31683502005100E-17   8.40000000000000E-02   8.40000000000000E-02
      0.00000000000000E+00   0.00000000000000E+00   0.00000000000000E+00   0.00000000000000E+00   0.00000000000000E+00
     -7.14074824787332E-17   3.60000000000000E-01   3.60000000000000E-01   0.00000000000000E+00   0.00000000000000E+00
      9.81567991930464E-11   6.71972766133057E-15   9.81635189207078E-11   1.60928709651077E-17   3.40000000000000E-01
      3.40000000000000E-01   0.00000000000000E+00   0.00000000000000E+00   0.00000000000000E+00   0.00000000000000E+00
      0.00000000000000E+00   6.84829617141355E-17
      2.20000000000000E-01
      0.00000000000000E+00   0.00000000000000E+00   0.00000000000000E+00   0.00000000000000E+00  -2.25925853190505E-13
     -9.09695688295255E-11  -9.11954946827160E-11  -1.32116271019539E-17   8.80000000000000E-02   8.80000000000000E-02
      0.00000000000000E+00   0.00000000000000E+00   0.00000000000000E+00   0.00000000000000E+00   0.00000000000000E+00
     -7.02715388405267E-17   3.60000000000000E-01   3.60000000000000E-01   0.00000000000000E+00   0.00000000000000E+00
      9.11888032415760E-11   6.69144114002847E-15   9.11954946827160E-11   1.60500488007484E-17   3.40000000000000E-01
      3.40000000000000E-01   0.00000000000000E+00   0.00000000000000E+00   0.00000000000000E+00   0.00000000000000E+00
      0.00000000000000E+00   6.74331171417321E-17
      2.30000000000000E-01
      0.00000000000000E+00   0.00000000000000E+00   0.00000000000000E+00   0.00000000000000E+00  -2.27252256744589E-13
     -8.44567070423068E-11  -8.46839592990514E-11  -1.32548925439167E-17   9.20000000000000E-02   9.20000000000000E-02
      0.00000000000000E+00   0.00000000000000E+00   0.00000000000000E+00   0.00000000000000E+00   0.00000000000000E+00
     -6.91355990694589E-17   3.60000000000000E-01   3.60000000000000E-01   0.00000000000000E+00   0.00000000000000E+00
      8.46772962462037E-11   6.66305284782201E-15   8.46839592990515E-11   1.60072229092300E-17   3.40000000000000E-01
      3.40000000000000E-01   0.00000000000000E+00   0.00000000000000E+00   0.00000000000000E+00   0.00000000000000E+00
      0.00000000000000E+00   6.63832687041456E-17
      2.40000000000000E-01
      0.00000000000000E+00   0.00000000000000E+00   0.00000000000000E+00   0.00000000000000E+00  -2.28580390413084E-13
     -7.83745082255292E-11  -7.86030886159422E-11  -1.32981467373139E-17   9.60000000000000E-02   9.60000000000000E-02
      0.00000000000000E+00   0.00000000000000E+00   0.00000000000000E+00   0.00000000000000E+00   0.00000000000000E+00
     -6.79996630303908E-17   3.60000000000000E-01   3.60000000000000E-01   0.00000000000000E+00   0.00000000000000E+00
      7.85964540434732E-11   6.63457246897761E-15   7.86030886159422E-11   1.59643932313295E-17   3.40000000000000E-01
      3.40000000000000E-01   0.00000000000000E+00   0.00000000000000E+00   0.00000000000000E+00   0.00000000000000E+00
      0.00000000000000E+00   6.53334165363752E-17
      2.50000000000000E-01
      0.00000000000000E+00   0.00000000000000E+00   0.00000000000000E+00   0.00000000000000E+00  -2.29910238775214E-13
     -7.26983388655367E-11  -7.29282491043119E-11  -1.33413898886029E-17   1.00000000000000E-01   1.00000000000000E-01
      0.00000000000000E+00   0.00000000000000E+00   0.00000000000000E+00   0.00000000000000E+00   0.00000000000000E+00
     -6.68637305899103E-17   3.60000000000000E-01   3.60000000000000E-01   0.00000000000000E+00   0.00000000000000E+00
      7.29216430953819E-11   6.60600892996970E-15   7.29282491043119E-11   1.59215597068117E-17   3.40000000000000E-01
      3.40000000000000E-01   0.00000000000000E+00   0.00000000000000E+00   0.00000000000000E+00   0.00000000000000E+00
      0.00000000000000E+00   6.42835607717015E-17
      2.60000000000000E-01
      0.00000000000000E+00   0.00000000000000E+00   0.00000000000000E+00   0.00000000000000E+00  -2.31241786287775E-13
     -6.74047165446231E-11  -6.76359583309109E-11  -1.33846221998870E-17   1.04000000000000E-01   1.04000000000000E-01
      0.00000000000000E+00   0.00000000000000E+00   0.00000000000000E+00   0.00000000000000E+00   0.00000000000000E+00
     -6.57278016162676E-17   3.60000000000000E-01   3.60000000000000E-01   0.00000000000000E+00   0.00000000000000E+00
      6.76293809604563E-11   6.57737045458566E-15   6.76359583309109E-11   1.58787222744028E-17   3.40000000000000E-01
      3.40000000000000E-01   0.00000000000000E+00   0.00000000000000E+00   0.00000000000000E+00   0.00000000000000E+00
      0.00000000000000E+00   6.32337015417518E-17
      2.70000000000000E-01
      0.00000000000000E+00   0.00000000000000E+00   0.00000000000000E+00   0.00000000000000E+00  -2.32575017311890E-13
     -6.24712710873096E-11  -6.27038461046215E-11  -1.34278438690164E-17   1.08000000000000E-01   1.08000000000000E-01
      0.00000000000000E+00   0.00000000000000E+00   0.00000000000000E+00   0.00000000000000E+00   0.00000000000000E+00
     -6.45918759793111E-17   3.60000000000000E-01   3.60000000000000E-01   0.00000000000000E+00   0.00000000000000E+00
      6.26972974399976E-11   6.54866462383033E-15   6.27038461046215E-11   1.58358808717645E-17   3.40000000000000E-01
      3.40000000000000E-01   0.00000000000000E+00   0.00000000000000E+00   0.00000000000000E+00   0.00000000000000E+00
      0.00000000000000E+00   6.21838389765630E-17
      2.80000000000000E-01
      0.00000000000000E+00   0.00000000000000E+00   0.00000000000000E+00   0.00000000000000E+00  -2.33909916137111E-13
     -5.78767063900168E-11  -5.81106163061539E-11  -1.34710550896869E-17   1.12000000000000E-01   1.12000000000000E-01
      0.00000000000000E+00   0.00000000000000E+00   0.00000000000000E+00   0.00000000000000E+00   0.00000000000000E+00
     -6.34559535504246E-17   3.60000000000000E-01   3.60000000000000E-01   0.00000000000000E+00   0.00000000000000E+00
      5.81040964077271E-11   6.51989842682193E-15   5.81106163061539E-11   1.57930354354674E-17   3.40000000000000E-01
      3.40000000000000E-01   0.00000000000000E+00   0.00000000000000E+00   0.00000000000000E+00   0.00000000000000E+00
      0.00000000000000E+00   6.11339732046440E-17
      2.90000000000000E-01
      0.00000000000000E+00   0.00000000000000E+00   0.00000000000000E+00   0.00000000000000E+00  -2.35246467003473E-13
     -5.36007629424227E-11  -5.38360094094261E-11  -1.35142560515359E-17   1.16000000000000E-01   1.16000000000000E-01
      0.00000000000000E+00   0.00000000000000E+00   0.00000000000000E+00   0.00000000000000E+00   0.00000000000000E+00
     -6.23200342024654E-17   3.60000000000000E-01   3.60000000000000E-01   0.00000000000000E+00   0.00000000000000E+00
      5.38295183311151E-11   6.49107831105687E-15   5.38360094094261E-11   1.57501859009639E-17   3.40000000000000E-01
      3.40000000000000E-01   0.00000000000000E+00   0.00000000000000E+00   0.00000000000000E+00   0.00000000000000E+00
      0.00000000000000E+00   6.00841043530374E-17
      3.00000000000000E-01
      0.00000000000000E+00   0.00000000000000E+00   0.00000000000000E+00   0.00000000000000E+00  -2.36584654121180E-13
     -4.96241810487671E-11  -4.98607657028883E-11  -1.35574469402364E-17   1.20000000000000E-01   1.20000000000000E-01
      0.00000000000000E+00   0.00000000000000E+00   0.00000000000000E+00   0.00000000000000E+00   0.00000000000000E+00
     -6.11841178097038E-17   3.60000000000000E-01   3.60000000000000E-01   0.00000000000000E+00   0.00000000000000E+00
      4.98543034926668E-11   6.46221022147184E-15   4.98607657028883E-11   1.57073322025609E-17   3.40000000000000E-01
      3.40000000000000E-01   0.00000000000000E+00   0.00000000000000E+00   0.00000000000000E+00   0.00000000000000E+00
      0.00000000000000E+00   5.90342325473794E-17
      3.10000000000000E-01
      0.00000000000000E+00   0.00000000000000E+00   0.00000000000000E+00   0.00000000000000E+00  -2.37924461688356E-13
     -4.59286647573355E-11  -4.61665892190239E-11  -1.36006279375886E-17   1.24000000000000E-01   1.24000000000000E-01
      0.00000000000000E+00   0.00000000000000E+00   0.00000000000000E+00   0.00000000000000E+00   0.00000000000000E+00
     -6.00482042477629E-17   3.60000000000000E-01   3.60000000000000E-01   0.00000000000000E+00   0.00000000000000E+00
      4.61601559193801E-11   6.43329964376901E-15   4.61665892190239E-11   1.56644742733919E-17   3.40000000000000E-01
      3.40000000000000E-01   0.00000000000000E+00   0.00000000000000E+00   0.00000000000000E+00   0.00000000000000E+00
      0.00000000000000E+00   5.79843579119596E-17
      3.20000000000000E-01
      0.00000000000000E+00   0.00000000000000E+00   0.00000000000000E+00   0.00000000000000E+00  -2.39265873907439E-13
     -4.24968465062224E-11  -4.27361123801298E-11  -1.36437992216086E-17   1.28000000000000E-01   1.28000000000000E-01
      0.00000000000000E+00   0.00000000000000E+00   0.00000000000000E+00   0.00000000000000E+00   0.00000000000000E+00
     -5.89122933935598E-17   3.60000000000000E-01   3.60000000000000E-01   0.00000000000000E+00   0.00000000000000E+00
      4.27297080284871E-11   6.40435164269177E-15   4.27361123801298E-11   1.56216120453890E-17   3.40000000000000E-01
      3.40000000000000E-01   0.00000000000000E+00   0.00000000000000E+00   0.00000000000000E+00   0.00000000000000E+00
      0.00000000000000E+00   5.69344805697794E-17
      3.30000000000000E-01
      0.00000000000000E+00   0.00000000000000E+00   0.00000000000000E+00   0.00000000000000E+00  -2.40608874999079E-13
     -3.93122524933397E-11  -3.95528613683388E-11  -1.36869609666161E-17   1.32000000000000E-01   1.32000000000000E-01
      0.00000000000000E+00   0.00000000000000E+00   0.00000000000000E+00   0.00000000000000E+00   0.00000000000000E+00
     -5.77763851252476E-17   3.60000000000000E-01   3.60000000000000E-01   0.00000000000000E+00   0.00000000000000E+00
      3.95464859974442E-11   6.37537089467047E-15   3.95528613683388E-11   1.55787454492535E-17   3.40000000000000E-01
      3.40000000000000E-01   0.00000000000000E+00   0.00000000000000E+00   0.00000000000000E+00   0.00000000000000E+00
      0.00000000000000E+00   5.58846006426101E-17
      3.40000000000000E-01
      0.00000000000000E+00   0.00000000000000E+00   0.00000000000000E+00   0.00000000000000E+00  -2.41953449215570E-13
     -3.63592687784538E-11  -3.66012222276694E-11  -1.37301133433190E-17   1.36000000000000E-01   1.36000000000000E-01
      0.00000000000000E+00   0.00000000000000E+00   0.00000000000000E+00   0.00000000000000E+00   0.00000000000000E+00
     -5.66404793221575E-17   3.60000000000000E-01   3.60000000000000E-01   0.00000000000000E+00   0.00000000000000E+00
      3.65948758659506E-11   6.34636171883791E-15   3.66012222276695E-11   1.55358744144271E-17   3.40000000000000E-01
      3.40000000000000E-01   0.00000000000000E+00   0.00000000000000E+00   0.00000000000000E+00   0.00000000000000E+00
      0.00000000000000E+00   5.48347182510495E-17
      3.50000000000000E-01
      0.00000000000000E+00   0.00000000000000E+00   0.00000000000000E+00   0.00000000000000E+00  -2.43299580851903E-13
     -3.36231081248008E-11  -3.38664077056527E-11  -1.37732565188963E-17   1.40000000000000E-01   1.40000000000000E-01
      0.00000000000000E+00   0.00000000000000E+00   0.00000000000000E+00   0.00000000000000E+00   0.00000000000000E+00
     -5.55045758647435E-17   3.60000000000000E-01   3.60000000000000E-01   0.00000000000000E+00   0.00000000000000E+00
      3.38600903775426E-11   6.31732811018816E-15   3.38664077056528E-11   1.54929988690617E-17   3.40000000000000E-01
      3.40000000000000E-01   0.00000000000000E+00   0.00000000000000E+00   0.00000000000000E+00   0.00000000000000E+00
      0.00000000000000E+00   5.37848335145782E-17
      3.60000000000000E-01
      0.00000000000000E+00   0.00000000000000E+00   0.00000000000000E+00   0.00000000000000E+00  -2.44647254256358E-13
     -3.10897775875607E-11  -3.13344248418171E-11  -1.38163906570788E-17   1.44000000000000E-01   1.44000000000000E-01
      0.00000000000000E+00   0.00000000000000E+00   0.00000000000000E+00   0.00000000000000E+00   0.00000000000000E+00
     -5.43686746345255E-17   3.60000000000000E-01   3.60000000000000E-01   0.00000000000000E+00   0.00000000000000E+00
      3.13281365680564E-11   6.28827376064168E-15   3.13344248418171E-11   1.54501187399893E-17   3.40000000000000E-01
      3.40000000000000E-01   0.00000000000000E+00   0.00000000000000E+00   0.00000000000000E+00   0.00000000000000E+00
      0.00000000000000E+00   5.27349465516150E-17
      3.70000000000000E-01
      0.00000000000000E+00   0.00000000000000E+00   0.00000000000000E+00   0.00000000000000E+00  -2.45996453839316E-13