DF-ISE text

Info {
  version   = 1.0
  type      = xyplot
  datasets  = [
    "time"
    "source OuterVoltage" "source InnerVoltage" "source QuasiFermiPotential" "source DisplacementCurrent" "source eCurrent"
    "source hCurrent" "source TotalCurrent" "source Charge" "topGate OuterVoltage" "topGate InnerVoltage"
    "topGate QuasiFermiPotential" "topGate DisplacementCurrent" "topGate eCurrent" "topGate hCurrent" "topGate TotalCurrent"
    "topGate Charge" "drain OuterVoltage" "drain InnerVoltage" "drain QuasiFermiPotential" "drain DisplacementCurrent"
    "drain eCurrent" "drain hCurrent" "drain TotalCurrent" "drain Charge" "bottomGate OuterVoltage"
    "bottomGate InnerVoltage" "bottomGate QuasiFermiPotential" "bottomGate DisplacementCurrent" "bottomGate eCurrent" "bottomGate hCurrent"
    "bottomGate TotalCurrent" "bottomGate Charge" ]
  functions = [
    Time
    OuterVoltage InnerVoltage QuasiFermiPotential DisplacementCurrent eCurrent
    hCurrent TotalCurrent Charge OuterVoltage InnerVoltage
    QuasiFermiPotential DisplacementCurrent eCurrent hCurrent TotalCurrent
    Charge OuterVoltage InnerVoltage QuasiFermiPotential DisplacementCurrent
    eCurrent hCurrent TotalCurrent Charge OuterVoltage
    InnerVoltage QuasiFermiPotential DisplacementCurrent eCurrent hCurrent
    TotalCurrent Charge ]
}

Data {
      1.00000000000000E-02
      0.00000000000000E+00   0.00000000000000E+00   0.00000000000000E+00   0.00000000000000E+00  -2.17945419601053E-13
     -2.05540513925247E-10  -2.05758459344848E-10  -1.29517347132554E-17   4.00000000000000E-03   4.00000000000000E-03
      0.00000000000000E+00   0.00000000000000E+00   0.00000000000000E+00   0.00000000000000E+00   0.00000000000000E+00
     -1.08693495429358E-16   2.50000000000000E-01   2.50000000000000E-01   0.00000000000000E+00   0.00000000000000E+00
      2.05753208124868E-10   5.25121998066268E-15   2.05758459344849E-10   1.39456944604286E-17   4.00000000000000E-01
      4.00000000000000E-01   0.00000000000000E+00   0.00000000000000E+00   0.00000000000000E+00   0.00000000000000E+00
      0.00000000000000E+00   1.07699535682185E-16
      2.00000000000000E-02
      0.00000000000000E+00   0.00000000000000E+00   0.00000000000000E+00   0.00000000000000E+00  -2.19264584699946E-13
     -1.93480358343477E-10  -1.93699622928177E-10  -1.29950722536175E-17   8.00000000000000E-03   8.00000000000000E-03
      0.00000000000000E+00   0.00000000000000E+00   0.00000000000000E+00   0.00000000000000E+00   0.00000000000000E+00
     -1.07557378338181E-16   2.50000000000000E-01   2.50000000000000E-01   0.00000000000000E+00   0.00000000000000E+00
      1.93694400239587E-10   5.22268858977940E-15   1.93699622928177E-10   1.39025860558797E-17   4.00000000000000E-01
      4.00000000000000E-01   0.00000000000000E+00   0.00000000000000E+00   0.00000000000000E+00   0.00000000000000E+00
      0.00000000000000E+00   1.06649864535919E-16
      3.00000000000000E-02
      0.00000000000000E+00   0.00000000000000E+00   0.00000000000000E+00   0.00000000000000E+00  -2.20585283936588E-13
     -1.82136214448353E-10  -1.82356799732290E-10  -1.30383972085110E-17   1.20000000000000E-02   1.20000000000000E-02
      0.00000000000000E+00   0.00000000000000E+00   0.00000000000000E+00   0.00000000000000E+00   0.00000000000000E+00
     -1.06421263272302E-16   2.50000000000000E-01   2.50000000000000E-01   0.00000000000000E+00   0.00000000000000E+00
      1.82351605527020E-10   5.19420526978591E-15   1.82356799732290E-10   1.38594691123721E-17   4.00000000000000E-01
      4.00000000000000E-01   0.00000000000000E+00   0.00000000000000E+00   0.00000000000000E+00   0.00000000000000E+00
      0.00000000000000E+00   1.05600191368441E-16
      4.00000000000000E-02
      0.00000000000000E+00   0.00000000000000E+00   0.00000000000000E+00   0.00000000000000E+00  -2.21907526039104E-13
     -1.71469907011715E-10  -1.71691814537754E-10  -1.30817098128142E-17   1.60000000000000E-02   1.60000000000000E-02
      0.00000000000000E+00   0.00000000000000E+00   0.00000000000000E+00   0.00000000000000E+00   0.00000000000000E+00
     -1.05285150036300E-16   2.50000000000000E-01   2.50000000000000E-01   0.00000000000000E+00   0.00000000000000E+00
      1.71686648767158E-10   5.16577059670836E-15   1.71691814537754E-10   1.38163434742069E-17   4.00000000000000E-01
      4.00000000000000E-01   0.00000000000000E+00   0.00000000000000E+00   0.00000000000000E+00   0.00000000000000E+00
      0.00000000000000E+00   1.04550516374907E-16
      5.00000000000000E-02
      0.00000000000000E+00   0.00000000000000E+00   0.00000000000000E+00   0.00000000000000E+00  -2.23231317582579E-13
     -1.61444963472022E-10  -1.61668194789605E-10  -1.31250102963865E-17   2.00000000000000E-02   2.00000000000000E-02
      0.00000000000000E+00   0.00000000000000E+00   0.00000000000000E+00   0.00000000000000E+00   0.00000000000000E+00
     -1.04149038435711E-16   2.50000000000000E-01   2.50000000000000E-01   0.00000000000000E+00   0.00000000000000E+00
      1.61663057404506E-10   5.13738509873832E-15   1.61668194789605E-10   1.37732089825663E-17   4.00000000000000E-01
      4.00000000000000E-01   0.00000000000000E+00   0.00000000000000E+00   0.00000000000000E+00   0.00000000000000E+00
      0.00000000000000E+00   1.03500839749532E-16
      6.00000000000000E-02
      0.00000000000000E+00   0.00000000000000E+00   0.00000000000000E+00   0.00000000000000E+00  -2.24556663179260E-13
     -1.52026553526637E-10  -1.52251110189816E-10  -1.31682988841868E-17   2.40000000000000E-02   2.40000000000000E-02
      0.00000000000000E+00   0.00000000000000E+00   0.00000000000000E+00   0.00000000000000E+00   0.00000000000000E+00
     -1.03012928276933E-16   2.50000000000000E-01   2.50000000000000E-01   0.00000000000000E+00   0.00000000000000E+00
      1.52246001140574E-10   5.10904924288024E-15   1.52251110189816E-10   1.37300654754320E-17   4.00000000000000E-01
      4.00000000000000E-01   0.00000000000000E+00   0.00000000000000E+00   0.00000000000000E+00   0.00000000000000E+00
      0.00000000000000E+00   1.02451161685688E-16
      7.00000000000000E-02
      0.00000000000000E+00   0.00000000000000E+00   0.00000000000000E+00   0.00000000000000E+00  -2.25883565653687E-13
     -1.43181430727672E-10  -1.43407314293326E-10  -1.32115757963877E-17   2.80000000000000E-02   2.80000000000000E-02
      0.00000000000000E+00   0.00000000000000E+00   0.00000000000000E+00   0.00000000000000E+00   0.00000000000000E+00
     -1.01876819367120E-16   2.50000000000000E-01   2.50000000000000E-01   0.00000000000000E+00   0.00000000000000E+00
      1.43402233529890E-10   5.08076343609223E-15   1.43407314293326E-10   1.36869127875031E-17   4.00000000000000E-01
      4.00000000000000E-01   0.00000000000000E+00   0.00000000000000E+00   0.00000000000000E+00   0.00000000000000E+00
      0.00000000000000E+00   1.01401482376005E-16
      8.00000000000000E-02
      0.00000000000000E+00   0.00000000000000E+00   0.00000000000000E+00   0.00000000000000E+00  -2.27212026204845E-13
     -1.34877875957001E-10  -1.35105087983206E-10  -1.32548412484874E-17   3.20000000000000E-02   3.20000000000000E-02
      0.00000000000000E+00   0.00000000000000E+00   0.00000000000000E+00   0.00000000000000E+00   0.00000000000000E+00
     -1.00740711514088E-16   2.50000000000000E-01   2.50000000000000E-01   0.00000000000000E+00   0.00000000000000E+00
      1.35100035455181E-10   5.05252802512406E-15   1.35105087983206E-10   1.36437507501108E-17   4.00000000000000E-01
      4.00000000000000E-01   0.00000000000000E+00   0.00000000000000E+00   0.00000000000000E+00   0.00000000000000E+00
      0.00000000000000E+00   1.00351802012464E-16
      9.00000000000000E-02
      0.00000000000000E+00   0.00000000000000E+00   0.00000000000000E+00   0.00000000000000E+00  -2.28542044551181E-13
     -1.27085642667726E-10  -1.27314184712277E-10  -1.32980954514189E-17   3.60000000000000E-02   3.60000000000000E-02
      0.00000000000000E+00   0.00000000000000E+00   0.00000000000000E+00   0.00000000000000E+00   0.00000000000000E+00
     -9.96046045262141E-17   2.50000000000000E-01   2.50000000000000E-01   0.00000000000000E+00   0.00000000000000E+00
      1.27309160368976E-10   5.02434330130333E-15   1.27314184712277E-10   1.36005791911332E-17   4.00000000000000E-01
      4.00000000000000E-01   0.00000000000000E+00   0.00000000000000E+00   0.00000000000000E+00   0.00000000000000E+00
      0.00000000000000E+00   9.93021207864999E-17
      1.00000000000000E-01
      0.00000000000000E+00   0.00000000000000E+00   0.00000000000000E+00   0.00000000000000E+00  -2.29873619067146E-13
     -1.19775903790320E-10  -1.20005777409387E-10  -1.33413386116562E-17   4.00000000000000E-02   4.00000000000000E-02
      0.00000000000000E+00   0.00000000000000E+00   0.00000000000000E+00   0.00000000000000E+00   0.00000000000000E+00
     -9.84684982123429E-17   2.50000000000000E-01   2.50000000000000E-01   0.00000000000000E+00   0.00000000000000E+00
      1.20000781199890E-10   4.99620949667413E-15   1.20005777409387E-10   1.35573979349070E-17   4.00000000000000E-01
      4.00000000000000E-01   0.00000000000000E+00   0.00000000000000E+00   0.00000000000000E+00   0.00000000000000E+00
      0.00000000000000E+00   9.82524388890922E-17
      1.10000000000000E-01
      0.00000000000000E+00   0.00000000000000E+00   0.00000000000000E+00   0.00000000000000E+00  -2.31206746907395E-13
     -1.12921200211960E-10  -1.13152406958867E-10  -1.33845709313181E-17   4.40000000000000E-02   4.40000000000000E-02
      0.00000000000000E+00   0.00000000000000E+00   0.00000000000000E+00   0.00000000000000E+00   0.00000000000000E+00
     -9.73323923816858E-17   2.50000000000000E-01   2.50000000000000E-01   0.00000000000000E+00   0.00000000000000E+00
      1.13147438832085E-10   4.96812678168161E-15   1.13152406958867E-10   1.35142068021379E-17   4.00000000000000E-01
      4.00000000000000E-01   0.00000000000000E+00   0.00000000000000E+00   0.00000000000000E+00   0.00000000000000E+00
      0.00000000000000E+00   9.72027565108659E-17
      1.20000000000000E-01
      0.00000000000000E+00   0.00000000000000E+00   0.00000000000000E+00   0.00000000000000E+00  -2.32541424118992E-13
     -1.06495390747054E-10  -1.06727932171173E-10  -1.34277926082691E-17   4.80000000000000E-02   4.80000000000000E-02
      0.00000000000000E+00   0.00000000000000E+00   0.00000000000000E+00   0.00000000000000E+00   0.00000000000000E+00
     -9.61962868437255E-17   2.50000000000000E-01   2.50000000000000E-01   0.00000000000000E+00   0.00000000000000E+00
      1.06722992075898E-10   4.94009527486577E-15   1.06727932171173E-10   1.34710056098091E-17   4.00000000000000E-01
      4.00000000000000E-01   0.00000000000000E+00   0.00000000000000E+00   0.00000000000000E+00   0.00000000000000E+00
      0.00000000000000E+00   9.61530738421856E-17
      1.30000000000000E-01
      0.00000000000000E+00   0.00000000000000E+00   0.00000000000000E+00   0.00000000000000E+00  -2.33877645747709E-13
     -1.00473603525777E-10  -1.00707481171525E-10  -1.34710038362188E-17   5.20000000000000E-02   5.20000000000000E-02
      0.00000000000000E+00   0.00000000000000E+00   0.00000000000000E+00   0.00000000000000E+00   0.00000000000000E+00
     -9.50601814081205E-17   2.50000000000000E-01   2.50000000000000E-01   0.00000000000000E+00   0.00000000000000E+00
      1.00702569056493E-10   4.91211503109524E-15   1.00707481171524E-10   1.34277941710876E-17   4.00000000000000E-01
      4.00000000000000E-01   0.00000000000000E+00   0.00000000000000E+00   0.00000000000000E+00   0.00000000000000E+00
      0.00000000000000E+00   9.51033910732518E-17
      1.40000000000000E-01
      0.00000000000000E+00   0.00000000000000E+00   0.00000000000000E+00   0.00000000000000E+00  -2.35215405931646E-13
     -9.48321887355924E-11  -9.50674041415240E-11  -1.35142048048170E-17   5.60000000000000E-02   5.60000000000000E-02
      0.00000000000000E+00   0.00000000000000E+00   0.00000000000000E+00   0.00000000000000E+00   0.00000000000000E+00
     -9.39240758846074E-17   2.50000000000000E-01   2.50000000000000E-01   0.00000000000000E+00   0.00000000000000E+00
      9.50625199554702E-11   4.88418605378582E-15   9.50674041415240E-11   1.33845722952286E-17   4.00000000000000E-01
      4.00000000000000E-01   0.00000000000000E+00   0.00000000000000E+00   0.00000000000000E+00   0.00000000000000E+00
      0.00000000000000E+00   9.40537083941959E-17
      1.50000000000000E-01
      0.00000000000000E+00   0.00000000000000E+00   0.00000000000000E+00   0.00000000000000E+00  -2.36554697990142E-13
     -8.95486726581201E-11  -8.97852273561103E-11  -1.35573956997487E-17   6.00000000000000E-02   6.00000000000000E-02
      0.00000000000000E+00   0.00000000000000E+00   0.00000000000000E+00   0.00000000000000E+00   0.00000000000000E+00
     -9.27879700829059E-17   2.50000000000000E-01   2.50000000000000E-01   0.00000000000000E+00   0.00000000000000E+00
      8.97803710478235E-11   4.85630828687402E-15   8.97852273561104E-11   1.33413397874778E-17   4.00000000000000E-01
      4.00000000000000E-01   0.00000000000000E+00   0.00000000000000E+00   0.00000000000000E+00   0.00000000000000E+00
      0.00000000000000E+00   9.30040259951768E-17
      1.60000000000000E-01
      0.00000000000000E+00   0.00000000000000E+00   0.00000000000000E+00   0.00000000000000E+00  -2.37895514504336E-13
     -8.46017129505363E-11  -8.48396084650406E-11  -1.36005767028248E-17   6.40000000000000E-02   6.40000000000000E-02
      0.00000000000000E+00   0.00000000000000E+00   0.00000000000000E+00   0.00000000000000E+00   0.00000000000000E+00
     -9.16518638126219E-17   2.50000000000000E-01   2.50000000000000E-01   0.00000000000000E+00   0.00000000000000E+00
      8.48347799834175E-11   4.82848162310004E-15   8.48396084650406E-11   1.32980964489712E-17   4.00000000000000E-01
      4.00000000000000E-01   0.00000000000000E+00   0.00000000000000E+00   0.00000000000000E+00   0.00000000000000E+00
      0.00000000000000E+00   9.19543440664755E-17
      1.70000000000000E-01
      0.00000000000000E+00   0.00000000000000E+00   0.00000000000000E+00   0.00000000000000E+00  -2.39237847389410E-13
     -7.99710551267936E-11  -8.02102929741830E-11  -1.36437479920718E-17   6.80000000000000E-02   6.80000000000000E-02
      0.00000000000000E+00   0.00000000000000E+00   0.00000000000000E+00   0.00000000000000E+00   0.00000000000000E+00
     -9.05157568831522E-17   2.50000000000000E-01   2.50000000000000E-01   0.00000000000000E+00   0.00000000000000E+00
      8.02054922682800E-11   4.80070590301541E-15   8.02102929741830E-11   1.32548420766329E-17   4.00000000000000E-01
      4.00000000000000E-01   0.00000000000000E+00   0.00000000000000E+00   0.00000000000000E+00   0.00000000000000E+00
      0.00000000000000E+00   9.09046627985911E-17
      1.80000000000000E-01
      0.00000000000000E+00   0.00000000000000E+00   0.00000000000000E+00   0.00000000000000E+00  -2.40581687963140E-13
     -7.56374901995052E-11  -7.58780718874684E-11  -1.36869097418188E-17   7.20000000000000E-02   7.20000000000000E-02
      0.00000000000000E+00   0.00000000000000E+00   0.00000000000000E+00   0.00000000000000E+00   0.00000000000000E+00
     -8.93796491035879E-17   2.50000000000000E-01   2.50000000000000E-01   0.00000000000000E+00   0.00000000000000E+00
      7.58732989065520E-11   4.77298091641075E-15   7.58780718874684E-11   1.32115764630702E-17   4.00000000000000E-01
      4.00000000000000E-01   0.00000000000000E+00   0.00000000000000E+00   0.00000000000000E+00   0.00000000000000E+00
      0.00000000000000E+00   8.98549823823365E-17
      1.90000000000000E-01
      0.00000000000000E+00   0.00000000000000E+00   0.00000000000000E+00   0.00000000000000E+00  -2.41927027008083E-13
     -7.15828134482778E-11  -7.18247404752858E-11  -1.37300621227823E-17   7.60000000000000E-02   7.60000000000000E-02
      0.00000000000000E+00   0.00000000000000E+00   0.00000000000000E+00   0.00000000000000E+00   0.00000000000000E+00
     -8.82435402826183E-17   2.50000000000000E-01   2.50000000000000E-01   0.00000000000000E+00   0.00000000000000E+00
      7.18199951688797E-11   4.74530640617374E-15   7.18247404752859E-11   1.31682993964666E-17   4.00000000000000E-01
      4.00000000000000E-01   0.00000000000000E+00   0.00000000000000E+00   0.00000000000000E+00   0.00000000000000E+00
      0.00000000000000E+00   8.88053030089340E-17
      2.00000000000000E-01
      0.00000000000000E+00   0.00000000000000E+00   0.00000000000000E+00   0.00000000000000E+00  -2.43273854826550E-13
     -6.77897842846864E-11  -6.80330581395130E-11  -1.37732053021494E-17   8.00000000000000E-02   8.00000000000000E-02
      0.00000000000000E+00   0.00000000000000E+00   0.00000000000000E+00   0.00000000000000E+00   0.00000000000000E+00
     -8.71074302284343E-17   2.50000000000000E-01   2.50000000000000E-01   0.00000000000000E+00   0.00000000000000E+00
      6.80283404574444E-11   4.71768206845784E-15   6.80330581395129E-11   1.31250106604720E-17   4.00000000000000E-01
      4.00000000000000E-01   0.00000000000000E+00   0.00000000000000E+00   0.00000000000000E+00   0.00000000000000E+00
      0.00000000000000E+00   8.77556248701117E-17
      2.10000000000000E-01
      0.00000000000000E+00   0.00000000000000E+00   0.00000000000000E+00   0.00000000000000E+00  -2.44622161293549E-13
     -6.42420871879706E-11  -6.44867093492641E-11  -1.38163394436581E-17   8.40000000000000E-02   8.40000000000000E-02
      0.00000000000000E+00   0.00000000000000E+00   0.00000000000000E+00   0.00000000000000E+00   0.00000000000000E+00
     -8.59713187486317E-17   2.50000000000000E-01   2.50000000000000E-01   0.00000000000000E+00   0.00000000000000E+00
      6.44820192417068E-11   4.69010755738748E-15   6.44867093492642E-11   1.30817100340902E-17   4.00000000000000E-01
      4.00000000000000E-01   0.00000000000000E+00   0.00000000000000E+00   0.00000000000000E+00   0.00000000000000E+00
      0.00000000000000E+00   8.67059481581997E-17
      2.20000000000000E-01
      0.00000000000000E+00   0.00000000000000E+00   0.00000000000000E+00   0.00000000000000E+00  -2.45971935903614E-13
     -6.09242936889435E-11  -6.11702656248472E-11  -1.38594647076769E-17   8.80000000000000E-02   8.80000000000000E-02
      0.00000000000000E+00   0.00000000000000E+00   0.00000000000000E+00   0.00000000000000E+00   0.00000000000000E+00
     -8.48352056501139E-17   2.50000000000000E-01   2.50000000000000E-01   0.00000000000000E+00   0.00000000000000E+00
      6.11656030423601E-11   4.66258248707138E-15   6.11702656248472E-11   1.30383972915640E-17   4.00000000000000E-01
      4.00000000000000E-01   0.00000000000000E+00   0.00000000000000E+00   0.00000000000000E+00   0.00000000000000E+00
      0.00000000000000E+00   8.56562730662268E-17
      2.30000000000000E-01
      0.00000000000000E+00   0.00000000000000E+00   0.00000000000000E+00   0.00000000000000E+00  -2.47323167814269E-13
     -5.78218253825729E-11  -5.80691485503872E-11  -1.39025812512808E-17   9.20000000000000E-02   9.20000000000000E-02
      0.00000000000000E+00   0.00000000000000E+00   0.00000000000000E+00   0.00000000000000E+00   0.00000000000000E+00
     -8.36990907389944E-17   2.50000000000000E-01   2.50000000000000E-01   0.00000000000000E+00   0.00000000000000E+00
      5.80645134439501E-11   4.63510643707055E-15   5.80691485503872E-11   1.29950722022572E-17   4.00000000000000E-01
      4.00000000000000E-01   0.00000000000000E+00   0.00000000000000E+00   0.00000000000000E+00   0.00000000000000E+00
      0.00000000000000E+00   8.46065997880181E-17
      2.40000000000000E-01
      0.00000000000000E+00   0.00000000000000E+00   0.00000000000000E+00   0.00000000000000E+00  -2.48675845884495E-13
     -5.49209179522312E-11  -5.51695937981157E-11  -1.39456892283271E-17   9.60000000000000E-02   9.60000000000000E-02
      0.00000000000000E+00   0.00000000000000E+00   0.00000000000000E+00   0.00000000000000E+00   0.00000000000000E+00
     -8.25629738204990E-17   2.50000000000000E-01   2.50000000000000E-01   0.00000000000000E+00   0.00000000000000E+00
      5.51649861191642E-11   4.60767895154094E-15   5.51695937981158E-11   1.29517345305338E-17   4.00000000000000E-01
      4.00000000000000E-01   0.00000000000000E+00   0.00000000000000E+00   0.00000000000000E+00   0.00000000000000E+00
      0.00000000000000E+00   8.35569285182923E-17
      2.50000000000000E-01
      0.00000000000000E+00   0.00000000000000E+00   0.00000000000000E+00   0.00000000000000E+00  -2.50029958711701E-13
     -5.22085861908180E-11  -5.24586161495297E-11  -1.39887887895280E-17   1.00000000000000E-01   1.00000000000000E-01
      0.00000000000000E+00   0.00000000000000E+00   0.00000000000000E+00   0.00000000000000E+00   0.00000000000000E+00
     -8.14268546988667E-17   2.50000000000000E-01   2.50000000000000E-01   0.00000000000000E+00   0.00000000000000E+00
      5.24540358499829E-11   4.58029954676876E-15   5.24586161495297E-11   1.29083840356343E-17   4.00000000000000E-01
      4.00000000000000E-01   0.00000000000000E+00   0.00000000000000E+00   0.00000000000000E+00   0.00000000000000E+00
      0.00000000000000E+00   8.25072594527603E-17
      2.60000000000000E-01
      0.00000000000000E+00   0.00000000000000E+00   0.00000000000000E+00   0.00000000000000E+00  -2.51385494663552E-13
     -4.96725900057540E-11  -4.99239755004175E-11  -1.40318800825225E-17   1.04000000000000E-01   1.04000000000000E-01
      0.00000000000000E+00   0.00000000000000E+00   0.00000000000000E+00   0.00000000000000E+00   0.00000000000000E+00
     -8.02907331772507E-17   2.50000000000000E-01   2.50000000000000E-01   0.00000000000000E+00   0.00000000000000E+00
      4.99194225327025E-11   4.55296771492383E-15   4.99239755004174E-11   1.28650204715491E-17   4.00000000000000E-01
      4.00000000000000E-01   0.00000000000000E+00   0.00000000000000E+00   0.00000000000000E+00   0.00000000000000E+00
      0.00000000000000E+00   8.14575927882241E-17
      2.70000000000000E-01
      0.00000000000000E+00   0.00000000000000E+00   0.00000000000000E+00   0.00000000000000E+00  -2.52742441908693E-13
     -4.73014013963891E-11  -4.75541438382978E-11  -1.40749632519459E-17   1.08000000000000E-01   1.08000000000000E-01
      0.00000000000000E+00   0.00000000000000E+00   0.00000000000000E+00   0.00000000000000E+00   0.00000000000000E+00
     -7.91546090576186E-17   2.50000000000000E-01   2.50000000000000E-01   0.00000000000000E+00   0.00000000000000E+00
      4.75496181553716E-11   4.52568292617922E-15   4.75541438382978E-11   1.28216435868879E-17   4.00000000000000E-01
      4.00000000000000E-01   0.00000000000000E+00   0.00000000000000E+00   0.00000000000000E+00   0.00000000000000E+00
      0.00000000000000E+00   8.04079287226765E-17
      2.80000000000000E-01
      0.00000000000000E+00   0.00000000000000E+00   0.00000000000000E+00   0.00000000000000E+00  -2.54100788443000E-13
     -4.50841723936078E-11  -4.53382731820508E-11  -1.41180384394974E-17   1.12000000000000E-01   1.12000000000000E-01
      0.00000000000000E+00   0.00000000000000E+00   0.00000000000000E+00   0.00000000000000E+00   0.00000000000000E+00
     -7.80184821406513E-17   2.50000000000000E-01   2.50000000000000E-01   0.00000000000000E+00   0.00000000000000E+00
      4.53337747374155E-11   4.49844463526271E-15   4.53382731820508E-11   1.27782531247472E-17   4.00000000000000E-01
      4.00000000000000E-01   0.00000000000000E+00   0.00000000000000E+00   0.00000000000000E+00   0.00000000000000E+00
      0.00000000000000E+00   7.93582674554014E-17
      2.90000000000000E-01
      0.00000000000000E+00   0.00000000000000E+00   0.00000000000000E+00   0.00000000000000E+00  -2.55460522113297E-13
     -4.30107039523847E-11  -4.32661644744980E-11  -1.41611057840068E-17   1.16000000000000E-01   1.16000000000000E-01
      0.00000000000000E+00   0.00000000000000E+00   0.00000000000000E+00   0.00000000000000E+00   0.00000000000000E+00
     -7.68823522256416E-17   2.50000000000000E-01   2.50000000000000E-01   0.00000000000000E+00   0.00000000000000E+00
      4.32616932222135E-11   4.47125228444981E-15   4.32661644744980E-11   1.27348488225730E-17   4.00000000000000E-01
      4.00000000000000E-01   0.00000000000000E+00   0.00000000000000E+00   0.00000000000000E+00   0.00000000000000E+00
      0.00000000000000E+00   7.83086091870754E-17
      3.00000000000000E-01
      0.00000000000000E+00   0.00000000000000E+00   0.00000000000000E+00   0.00000000000000E+00  -2.56821630641084E-13
     -4.10714157888259E-11  -4.13282374194670E-11  -1.42041654214993E-17   1.20000000000000E-01   1.20000000000000E-01
      0.00000000000000E+00   0.00000000000000E+00   0.00000000000000E+00   0.00000000000000E+00   0.00000000000000E+00
     -7.57462191103921E-17   2.50000000000000E-01   2.50000000000000E-01   0.00000000000000E+00   0.00000000000000E+00
      4.13237933141571E-11   4.44410530992277E-15   4.13282374194670E-11   1.26914304120216E-17   4.00000000000000E-01
      4.00000000000000E-01   0.00000000000000E+00   0.00000000000000E+00   0.00000000000000E+00   0.00000000000000E+00
      0.00000000000000E+00   7.72589541198698E-17
      3.10000000000000E-01
      0.00000000000000E+00   0.00000000000000E+00   0.00000000000000E+00   0.00000000000000E+00  -2.58184101640691E-13
     -3.92573171537827E-11  -3.95155012554234E-11  -1.42472174852581E-17   1.24000000000000E-01   1.24000000000000E-01
      0.00000000000000E+00   0.00000000000000E+00   0.00000000000000E+00   0.00000000000000E+00   0.00000000000000E+00
     -7.46100825911109E-17   2.50000000000000E-01   2.50000000000000E-01   0.00000000000000E+00   0.00000000000000E+00
      3.95110842522786E-11   4.41700314475185E-15   3.95155012554233E-11   1.26479976188151E-17   4.00000000000000E-01
      4.00000000000000E-01   0.00000000000000E+00   0.00000000000000E+00   0.00000000000000E+00   0.00000000000000E+00
      0.00000000000000E+00   7.62093024575539E-17
      3.20000000000000E-01
      0.00000000000000E+00   0.00000000000000E+00   0.00000000000000E+00   0.00000000000000E+00  -2.59547922638937E-13
     -3.75599785355197E-11  -3.78195264581586E-11  -1.42902621058866E-17   1.28000000000000E-01   1.28000000000000E-01
      0.00000000000000E+00   0.00000000000000E+00   0.00000000000000E+00   0.00000000000000E+00   0.00000000000000E+00
     -7.34739424623078E-17   2.50000000000000E-01   2.50000000000000E-01   0.00000000000000E+00   0.00000000000000E+00
      3.78151365129334E-11   4.38994522524169E-15   3.78195264581586E-11   1.26045501625948E-17   4.00000000000000E-01
      4.00000000000000E-01   0.00000000000000E+00   0.00000000000000E+00   0.00000000000000E+00   0.00000000000000E+00
      0.00000000000000E+00   7.51596544055996E-17
      3.30000000000000E-01
      0.00000000000000E+00   0.00000000000000E+00   0.00000000000000E+00   0.00000000000000E+00  -2.60913081089414E-13
     -3.59715042841570E-11  -3.62324173652464E-11  -1.43332994113678E-17   1.32000000000000E-01   1.32000000000000E-01
      0.00000000000000E+00   0.00000000000000E+00   0.00000000000000E+00   0.00000000000000E+00   0.00000000000000E+00
     -7.23377985166883E-17   2.50000000000000E-01   2.50000000000000E-01   0.00000000000000E+00   0.00000000000000E+00
      3.62280544342503E-11   4.36293099610643E-15   3.62324173652464E-11   1.25610877567699E-17   4.00000000000000E-01
      4.00000000000000E-01   0.00000000000000E+00   0.00000000000000E+00   0.00000000000000E+00   0.00000000000000E+00
      0.00000000000000E+00   7.41100101712862E-17
      3.40000000000000E-01
      0.00000000000000E+00   0.00000000000000E+00   0.00000000000000E+00   0.00000000000000E+00  -2.62279564387657E-13
     -3.44845061506992E-11  -3.47467857150869E-11  -1.43763295271237E-17   1.36000000000000E-01   1.36000000000000E-01
      0.00000000000000E+00   0.00000000000000E+00   0.00000000000000E+00   0.00000000000000E+00   0.00000000000000E+00
     -7.12016505450468E-17   2.50000000000000E-01   2.50000000000000E-01   0.00000000000000E+00   0.00000000000000E+00
      3.47424497551727E-11   4.33595991412264E-15   3.47467857150869E-11   1.25176101083627E-17   4.00000000000000E-01
      4.00000000000000E-01   0.00000000000000E+00   0.00000000000000E+00   0.00000000000000E+00   0.00000000000000E+00
      0.00000000000000E+00   7.30603699638078E-17
      3.50000000000000E-01
      0.00000000000000E+00   0.00000000000000E+00   0.00000000000000E+00   0.00000000000000E+00  -2.63647359883447E-13
     -3.30920777334703E-11  -3.33557250933537E-11  -1.44193525760718E-17   1.40000000000000E-01   1.40000000000000E-01
      0.00000000000000E+00   0.00000000000000E+00   0.00000000000000E+00   0.00000000000000E+00   0.00000000000000E+00
     -7.00654983361587E-17   2.50000000000000E-01   2.50000000000000E-01   0.00000000000000E+00   0.00000000000000E+00
      3.33514160618987E-11   4.30903145498283E-15   3.33557250933537E-11   1.24741169178496E-17   4.00000000000000E-01
      4.00000000000000E-01   0.00000000000000E+00   0.00000000000000E+00   0.00000000000000E+00   0.00000000000000E+00
      0.00000000000000E+00   7.20107339943809E-17
      3.60000000000000E-01
      0.00000000000000E+00   0.00000000000000E+00   0.00000000000000E+00   0.00000000000000E+00  -2.65016454891604E-13
     -3.17877698246433E-11  -3.20527862795349E-11  -1.44623686786814E-17   1.44000000000000E-01   1.44000000000000E-01
      0.00000000000000E+00   0.00000000000000E+00   0.00000000000000E+00   0.00000000000000E+00   0.00000000000000E+00
     -6.89293416766703E-17   2.50000000000000E-01   2.50000000000000E-01   0.00000000000000E+00   0.00000000000000E+00
      3.20485041344188E-11   4.28214511614588E-15   3.20527862795349E-11   1.24306078789984E-17   4.00000000000000E-01
      4.00000000000000E-01   0.00000000000000E+00   0.00000000000000E+00   0.00000000000000E+00   0.00000000000000E+00
      0.00000000000000E+00   7.09611024763533E-17
      3.70000000000000E-01
      0.00000000000000E+00   0.00000000000000E+00   0.00000000000000E+00   0.00000000000000E+00  -2.66386836702039E-13