DF-ISE text

Info {
  version   = 1.0
  type      = xyplot
  datasets  = [
    "time"
    "source OuterVoltage" "source InnerVoltage" "source QuasiFermiPotential" "source DisplacementCurrent" "source eCurrent"
    "source hCurrent" "source TotalCurrent" "source Charge" "topGate OuterVoltage" "topGate InnerVoltage"
    "topGate QuasiFermiPotential" "topGate DisplacementCurrent" "topGate eCurrent" "topGate hCurrent" "topGate TotalCurrent"
    "topGate Charge" "drain OuterVoltage" "drain InnerVoltage" "drain QuasiFermiPotential" "drain DisplacementCurrent"
    "drain eCurrent" "drain hCurrent" "drain TotalCurrent" "drain Charge" "bottomGate OuterVoltage"
    "bottomGate InnerVoltage" "bottomGate QuasiFermiPotential" "bottomGate DisplacementCurrent" "bottomGate eCurrent" "bottomGate hCurrent"
    "bottomGate TotalCurrent" "bottomGate Charge" ]
  functions = [
    Time
    OuterVoltage InnerVoltage QuasiFermiPotential DisplacementCurrent eCurrent
    hCurrent TotalCurrent Charge OuterVoltage InnerVoltage
    QuasiFermiPotential DisplacementCurrent eCurrent hCurrent TotalCurrent
    Charge OuterVoltage InnerVoltage QuasiFermiPotential DisplacementCurrent
    eCurrent hCurrent TotalCurrent Charge OuterVoltage
    InnerVoltage QuasiFermiPotential DisplacementCurrent eCurrent hCurrent
    TotalCurrent Charge ]
}

Data {
      1.00000000000000E-02
      0.00000000000000E+00   0.00000000000000E+00   0.00000000000000E+00   0.00000000000000E+00  -1.75280507521535E-13
     -1.03010401517833E-11  -1.04763206593048E-11  -1.15345532445931E-17   4.00000000000000E-03   4.00000000000000E-03
      0.00000000000000E+00   0.00000000000000E+00   0.00000000000000E+00   0.00000000000000E+00   0.00000000000000E+00
     -7.32884348598075E-17   1.30000000000000E-01   1.30000000000000E-01   0.00000000000000E+00   0.00000000000000E+00
      1.04718612986623E-11   4.45936064250629E-15   1.04763206593048E-11   1.27565074362702E-17   2.70000000000000E-01
      2.70000000000000E-01   0.00000000000000E+00   0.00000000000000E+00   0.00000000000000E+00   0.00000000000000E+00
      0.00000000000000E+00   7.20664806681305E-17
      2.00000000000000E-02
      0.00000000000000E+00   0.00000000000000E+00   0.00000000000000E+00   0.00000000000000E+00  -1.76514649618698E-13
     -9.38611479494385E-12  -9.56262944456255E-12  -1.15784669080937E-17   8.00000000000000E-03   8.00000000000000E-03
      0.00000000000000E+00   0.00000000000000E+00   0.00000000000000E+00   0.00000000000000E+00   0.00000000000000E+00
     -7.21518778113751E-17   1.30000000000000E-01   1.30000000000000E-01   0.00000000000000E+00   0.00000000000000E+00
      9.55819715477991E-12   4.43228978263615E-15   9.56262944456255E-12   1.27130952693484E-17   2.70000000000000E-01
      2.70000000000000E-01   0.00000000000000E+00   0.00000000000000E+00   0.00000000000000E+00   0.00000000000000E+00
      0.00000000000000E+00   7.10172494501204E-17
      3.00000000000000E-02
      0.00000000000000E+00   0.00000000000000E+00   0.00000000000000E+00   0.00000000000000E+00  -1.77751303418938E-13
     -8.55190218676120E-12  -8.72965349018014E-12  -1.16223566944656E-17   1.20000000000000E-02   1.20000000000000E-02
      0.00000000000000E+00   0.00000000000000E+00   0.00000000000000E+00   0.00000000000000E+00   0.00000000000000E+00
     -7.10153256148677E-17   1.30000000000000E-01   1.30000000000000E-01   0.00000000000000E+00   0.00000000000000E+00
      8.72524822967453E-12   4.40526050560285E-15   8.72965349018014E-12   1.26696689213277E-17   2.70000000000000E-01
      2.70000000000000E-01   0.00000000000000E+00   0.00000000000000E+00   0.00000000000000E+00   0.00000000000000E+00
      0.00000000000000E+00   6.99680133880056E-17
      4.00000000000000E-02
      0.00000000000000E+00   0.00000000000000E+00   0.00000000000000E+00   0.00000000000000E+00  -1.78990456296820E-13
     -7.79195435902906E-12  -7.97094481532588E-12  -1.16662230884485E-17   1.60000000000000E-02   1.60000000000000E-02
      0.00000000000000E+00   0.00000000000000E+00   0.00000000000000E+00   0.00000000000000E+00   0.00000000000000E+00
     -6.98787778864764E-17   1.30000000000000E-01   1.30000000000000E-01   0.00000000000000E+00   0.00000000000000E+00
      7.96656654289723E-12   4.37827242866002E-15   7.97094481532589E-12   1.26262281099425E-17   2.70000000000000E-01
      2.70000000000000E-01   0.00000000000000E+00   0.00000000000000E+00   0.00000000000000E+00   0.00000000000000E+00
      0.00000000000000E+00   6.89187728649824E-17
      5.00000000000000E-02
      0.00000000000000E+00   0.00000000000000E+00   0.00000000000000E+00   0.00000000000000E+00  -1.80232094404597E-13
     -7.10026300379076E-12  -7.28049509819536E-12  -1.17100665638007E-17   2.00000000000000E-02   2.00000000000000E-02
      0.00000000000000E+00   0.00000000000000E+00   0.00000000000000E+00   0.00000000000000E+00   0.00000000000000E+00
     -6.87422342450257E-17   1.30000000000000E-01   1.30000000000000E-01   0.00000000000000E+00   0.00000000000000E+00
      7.27614377294949E-12   4.35132524587394E-15   7.28049509819536E-12   1.25827725471594E-17   2.70000000000000E-01
      2.70000000000000E-01   0.00000000000000E+00   0.00000000000000E+00   0.00000000000000E+00   0.00000000000000E+00
      0.00000000000000E+00   6.78695282616670E-17
      6.00000000000000E-02
      0.00000000000000E+00   0.00000000000000E+00   0.00000000000000E+00   0.00000000000000E+00  -1.81476202807042E-13
     -6.47123587739075E-12  -6.65271208019779E-12  -1.17538875835640E-17   2.40000000000000E-02   2.40000000000000E-02
      0.00000000000000E+00   0.00000000000000E+00   0.00000000000000E+00   0.00000000000000E+00   0.00000000000000E+00
     -6.76056943117467E-17   1.30000000000000E-01   1.30000000000000E-01   0.00000000000000E+00   0.00000000000000E+00
      6.64838766160106E-12   4.32441859674562E-15   6.65271208019780E-12   1.25393019389935E-17   2.70000000000000E-01
      2.70000000000000E-01   0.00000000000000E+00   0.00000000000000E+00   0.00000000000000E+00   0.00000000000000E+00
      0.00000000000000E+00   6.68202799563172E-17
      7.00000000000000E-02
      0.00000000000000E+00   0.00000000000000E+00   0.00000000000000E+00   0.00000000000000E+00  -1.82722765605384E-13
     -5.89967404754585E-12  -6.08239681315124E-12  -1.17976866003218E-17   2.80000000000000E-02   2.80000000000000E-02
      0.00000000000000E+00   0.00000000000000E+00   0.00000000000000E+00   0.00000000000000E+00   0.00000000000000E+00
     -6.64691577100536E-17   1.30000000000000E-01   1.30000000000000E-01   0.00000000000000E+00   0.00000000000000E+00
      6.07809926090605E-12   4.29755224519708E-15   6.08239681315124E-12   1.24958159853233E-17   2.70000000000000E-01
      2.70000000000000E-01   0.00000000000000E+00   0.00000000000000E+00   0.00000000000000E+00   0.00000000000000E+00
      0.00000000000000E+00   6.57710283250521E-17
      8.00000000000000E-02
      0.00000000000000E+00   0.00000000000000E+00   0.00000000000000E+00   0.00000000000000E+00  -1.83971766049106E-13
     -5.38074997438152E-12  -5.56472174043063E-12  -1.18414640564508E-17   3.20000000000000E-02   3.20000000000000E-02
      0.00000000000000E+00   0.00000000000000E+00   0.00000000000000E+00   0.00000000000000E+00   0.00000000000000E+00
     -6.53326240653224E-17   1.30000000000000E-01   1.30000000000000E-01   0.00000000000000E+00   0.00000000000000E+00
      5.56045101453697E-12   4.27072589365686E-15   5.56472174043063E-12   1.24523143797032E-17   2.70000000000000E-01
      2.70000000000000E-01   0.00000000000000E+00   0.00000000000000E+00   0.00000000000000E+00   0.00000000000000E+00
      0.00000000000000E+00   6.47217737420700E-17
      9.00000000000000E-02
      0.00000000000000E+00   0.00000000000000E+00   0.00000000000000E+00   0.00000000000000E+00  -1.85223186639518E-13
     -4.90998641717904E-12  -5.09520960381856E-12  -1.18852203843669E-17   3.60000000000000E-02   3.60000000000000E-02
      0.00000000000000E+00   0.00000000000000E+00   0.00000000000000E+00   0.00000000000000E+00   0.00000000000000E+00
     -6.41960930046717E-17   1.30000000000000E-01   1.30000000000000E-01   0.00000000000000E+00   0.00000000000000E+00
      5.09096566448604E-12   4.24393933251513E-15   5.09520960381856E-12   1.24087968091747E-17   2.70000000000000E-01
      2.70000000000000E-01   0.00000000000000E+00   0.00000000000000E+00   0.00000000000000E+00   0.00000000000000E+00
      0.00000000000000E+00   6.36725165798639E-17
      1.00000000000000E-01
      0.00000000000000E+00   0.00000000000000E+00   0.00000000000000E+00   0.00000000000000E+00  -1.86477009220226E-13
     -4.48323615671232E-12  -4.66971316593254E-12  -1.19289560067646E-17   4.00000000000000E-02   4.00000000000000E-02
      0.00000000000000E+00   0.00000000000000E+00   0.00000000000000E+00   0.00000000000000E+00   0.00000000000000E+00
     -6.30595641567458E-17   1.30000000000000E-01   1.30000000000000E-01   0.00000000000000E+00   0.00000000000000E+00
      4.66549597356730E-12   4.21719236524359E-15   4.66971316593254E-12   1.23652629540749E-17   2.70000000000000E-01
      2.70000000000000E-01   0.00000000000000E+00   0.00000000000000E+00   0.00000000000000E+00   0.00000000000000E+00
      0.00000000000000E+00   6.26232572094355E-17
      1.10000000000000E-01
      0.00000000000000E+00   0.00000000000000E+00   0.00000000000000E+00   0.00000000000000E+00  -1.87733215063730E-13
     -4.09666252332912E-12  -4.28439573839286E-12  -1.19726713368510E-17   4.40000000000000E-02   4.40000000000000E-02
      0.00000000000000E+00   0.00000000000000E+00   0.00000000000000E+00   0.00000000000000E+00   0.00000000000000E+00
     -6.19230371514988E-17   1.30000000000000E-01   1.30000000000000E-01   0.00000000000000E+00   0.00000000000000E+00
      4.28020525353660E-12   4.19048485625304E-15   4.28439573839285E-12   1.23217124878420E-17   2.70000000000000E-01
      2.70000000000000E-01   0.00000000000000E+00   0.00000000000000E+00   0.00000000000000E+00   0.00000000000000E+00
      0.00000000000000E+00   6.15739960005077E-17
      1.20000000000000E-01
      0.00000000000000E+00   0.00000000000000E+00   0.00000000000000E+00   0.00000000000000E+00  -1.88991784945853E-13
     -3.74672071972565E-12  -3.93571250467150E-12  -1.20163667785735E-17   4.80000000000000E-02   4.80000000000000E-02
      0.00000000000000E+00   0.00000000000000E+00   0.00000000000000E+00   0.00000000000000E+00   0.00000000000000E+00
     -6.07865116199811E-17   1.30000000000000E-01   1.30000000000000E-01   0.00000000000000E+00   0.00000000000000E+00
      3.93154868798310E-12   4.16381668840548E-15   3.93571250467151E-12   1.22781450768185E-17   2.70000000000000E-01
      2.70000000000000E-01   0.00000000000000E+00   0.00000000000000E+00   0.00000000000000E+00   0.00000000000000E+00
      0.00000000000000E+00   6.05247333217361E-17
      1.30000000000000E-01
      0.00000000000000E+00   0.00000000000000E+00   0.00000000000000E+00   0.00000000000000E+00  -1.90252699216318E-13
     -3.43013992709848E-12  -3.62039262631480E-12  -1.20600427268425E-17   5.20000000000000E-02   5.20000000000000E-02
      0.00000000000000E+00   0.00000000000000E+00   0.00000000000000E+00   0.00000000000000E+00   0.00000000000000E+00
     -5.96499871941268E-17   1.30000000000000E-01   1.30000000000000E-01   0.00000000000000E+00   0.00000000000000E+00
      3.61625543850661E-12   4.13718780818978E-15   3.62039262631480E-12   1.22345603800507E-17   2.70000000000000E-01
      2.70000000000000E-01   0.00000000000000E+00   0.00000000000000E+00   0.00000000000000E+00   0.00000000000000E+00
      0.00000000000000E+00   5.94754695409185E-17
      1.40000000000000E-01
      0.00000000000000E+00   0.00000000000000E+00   0.00000000000000E+00   0.00000000000000E+00  -1.91515937860920E-13
     -3.14390618236632E-12  -3.33542212022724E-12  -1.21036995677480E-17   5.60000000000000E-02   5.60000000000000E-02
      0.00000000000000E+00   0.00000000000000E+00   0.00000000000000E+00   0.00000000000000E+00   0.00000000000000E+00
     -5.85134635065421E-17   1.30000000000000E-01   1.30000000000000E-01   0.00000000000000E+00   0.00000000000000E+00
      3.33131152202277E-12   4.11059820447550E-15   3.33542212022724E-12   1.21909580490852E-17   2.70000000000000E-01
      2.70000000000000E-01   0.00000000000000E+00   0.00000000000000E+00   0.00000000000000E+00   0.00000000000000E+00
      0.00000000000000E+00   5.84262050252049E-17
      1.50000000000000E-01
      0.00000000000000E+00   0.00000000000000E+00   0.00000000000000E+00   0.00000000000000E+00  -1.92781480559347E-13
     -2.88524601374940E-12  -3.07802749430874E-12  -1.21473376787715E-17   6.00000000000000E-02   6.00000000000000E-02
      0.00000000000000E+00   0.00000000000000E+00   0.00000000000000E+00   0.00000000000000E+00   0.00000000000000E+00
     -5.73769401902947E-17   1.30000000000000E-01   1.30000000000000E-01   0.00000000000000E+00   0.00000000000000E+00
      3.07394344639230E-12   4.08404791644560E-15   3.07802749430874E-12   1.21473377277609E-17   2.70000000000000E-01
      2.70000000000000E-01   0.00000000000000E+00   0.00000000000000E+00   0.00000000000000E+00   0.00000000000000E+00
      0.00000000000000E+00   5.73769401413054E-17
      1.60000000000000E-01
      0.00000000000000E+00   0.00000000000000E+00   0.00000000000000E+00   0.00000000000000E+00  -1.94049306736348E-13
     -2.65161082122405E-12  -2.84566012796040E-12  -1.21909574289921E-17   6.40000000000000E-02   6.40000000000000E-02
      0.00000000000000E+00   0.00000000000000E+00   0.00000000000000E+00   0.00000000000000E+00   0.00000000000000E+00
     -5.62404168787043E-17   1.30000000000000E-01   1.30000000000000E-01   0.00000000000000E+00   0.00000000000000E+00
      2.84160259091519E-12   4.05753704521497E-15   2.84566012796040E-12   1.21036990519983E-17   2.70000000000000E-01
      2.70000000000000E-01   0.00000000000000E+00   0.00000000000000E+00   0.00000000000000E+00   0.00000000000000E+00
      0.00000000000000E+00   5.63276752556981E-17
      1.70000000000000E-01
      0.00000000000000E+00   0.00000000000000E+00   0.00000000000000E+00   0.00000000000000E+00  -1.95319395608568E-13
     -2.44066198773819E-12  -2.63598138334676E-12  -1.22345591792878E-17   6.80000000000000E-02   6.80000000000000E-02
      0.00000000000000E+00   0.00000000000000E+00   0.00000000000000E+00   0.00000000000000E+00   0.00000000000000E+00
     -5.51038932051326E-17   1.30000000000000E-01   1.30000000000000E-01   0.00000000000000E+00   0.00000000000000E+00
      2.63195031760368E-12   4.03106574308363E-15   2.63598138334676E-12   1.20600416495834E-17   2.70000000000000E-01
      2.70000000000000E-01   0.00000000000000E+00   0.00000000000000E+00   0.00000000000000E+00   0.00000000000000E+00
      0.00000000000000E+00   5.52784107348369E-17
      1.80000000000000E-01
      0.00000000000000E+00   0.00000000000000E+00   0.00000000000000E+00   0.00000000000000E+00  -1.96591726227431E-13
     -2.25025670652211E-12  -2.44684843274954E-12  -1.22781432825317E-17   7.20000000000000E-02   7.20000000000000E-02
      0.00000000000000E+00   0.00000000000000E+00   0.00000000000000E+00   0.00000000000000E+00   0.00000000000000E+00
     -5.39673688027749E-17   1.30000000000000E-01   1.30000000000000E-01   0.00000000000000E+00   0.00000000000000E+00
      2.44284379853136E-12   4.00463421817292E-15   2.44684843274953E-12   1.20163651399479E-17   2.70000000000000E-01
      2.70000000000000E-01   0.00000000000000E+00   0.00000000000000E+00   0.00000000000000E+00   0.00000000000000E+00
      0.00000000000000E+00   5.42291469453587E-17
      1.90000000000000E-01
      0.00000000000000E+00   0.00000000000000E+00   0.00000000000000E+00   0.00000000000000E+00  -1.97866277516472E-13
     -2.07843450917676E-12  -2.27630078669324E-12  -1.23217100837835E-17   7.60000000000000E-02   7.60000000000000E-02
      0.00000000000000E+00   0.00000000000000E+00   0.00000000000000E+00   0.00000000000000E+00   0.00000000000000E+00
     -5.28308433044510E-17   1.30000000000000E-01   1.30000000000000E-01   0.00000000000000E+00   0.00000000000000E+00
      2.27232254396444E-12   3.97824272878898E-15   2.27630078669323E-12   1.19726691339441E-17   2.70000000000000E-01
      2.70000000000000E-01   0.00000000000000E+00   0.00000000000000E+00   0.00000000000000E+00   0.00000000000000E+00
      0.00000000000000E+00   5.31798842542905E-17
      2.00000000000000E-01
      0.00000000000000E+00   0.00000000000000E+00   0.00000000000000E+00   0.00000000000000E+00  -1.99143028306385E-13
     -1.92340447871575E-12  -2.12254750702214E-12  -1.23652599204765E-17   8.00000000000000E-02   8.00000000000000E-02
      0.00000000000000E+00   0.00000000000000E+00   0.00000000000000E+00   0.00000000000000E+00   0.00000000000000E+00
     -5.16943163423964E-17   1.30000000000000E-01   1.30000000000000E-01   0.00000000000000E+00   0.00000000000000E+00
      2.11859561542638E-12   3.95189159574594E-15   2.12254750702213E-12   1.19289532336159E-17   2.70000000000000E-01
      2.70000000000000E-01   0.00000000000000E+00   0.00000000000000E+00   0.00000000000000E+00   0.00000000000000E+00
      0.00000000000000E+00   5.21306230292570E-17
      2.10000000000000E-01
      0.00000000000000E+00   0.00000000000000E+00   0.00000000000000E+00   0.00000000000000E+00  -2.00421957366836E-13
     -1.78353313115351E-12  -1.98395508852034E-12  -1.24087931225988E-17   8.40000000000000E-02   8.40000000000000E-02
      0.00000000000000E+00   0.00000000000000E+00   0.00000000000000E+00   0.00000000000000E+00   0.00000000000000E+00
     -5.05577875480528E-17   1.30000000000000E-01   1.30000000000000E-01   0.00000000000000E+00   0.00000000000000E+00
      1.98002950731604E-12   3.92558120429493E-15   1.98395508852034E-12   1.18852170319633E-17   2.70000000000000E-01
      2.70000000000000E-01   0.00000000000000E+00   0.00000000000000E+00   0.00000000000000E+00   0.00000000000000E+00
      0.00000000000000E+00   5.10813636386882E-17
      2.20000000000000E-01
      0.00000000000000E+00   0.00000000000000E+00   0.00000000000000E+00   0.00000000000000E+00  -2.01703043435295E-13
     -1.65733294877212E-12  -1.85903599220741E-12  -1.24523100128718E-17   8.80000000000000E-02   8.80000000000000E-02
      0.00000000000000E+00   0.00000000000000E+00   0.00000000000000E+00   0.00000000000000E+00   0.00000000000000E+00
     -4.94212565518589E-17   1.30000000000000E-01   1.30000000000000E-01   0.00000000000000E+00   0.00000000000000E+00
      1.85513668021321E-12   3.89931199420215E-15   1.85903599220741E-12   1.18414601127029E-17   2.70000000000000E-01
      2.70000000000000E-01   0.00000000000000E+00   0.00000000000000E+00   0.00000000000000E+00   0.00000000000000E+00
      0.00000000000000E+00   5.00321064520278E-17
      2.30000000000000E-01
      0.00000000000000E+00   0.00000000000000E+00   0.00000000000000E+00   0.00000000000000E+00  -2.02986265239277E-13
     -1.54345154776859E-12  -1.74643781300786E-12  -1.24958109069228E-17   9.20000000000000E-02   9.20000000000000E-02
      0.00000000000000E+00   0.00000000000000E+00   0.00000000000000E+00   0.00000000000000E+00   0.00000000000000E+00
     -4.82847229830403E-17   1.30000000000000E-01   1.30000000000000E-01   0.00000000000000E+00   0.00000000000000E+00
      1.74256472855587E-12   3.87308445199599E-15   1.74643781300786E-12   1.17976820500213E-17   2.70000000000000E-01
      2.70000000000000E-01   0.00000000000000E+00   0.00000000000000E+00   0.00000000000000E+00   0.00000000000000E+00
      0.00000000000000E+00   4.89828518399418E-17
      2.40000000000000E-01
      0.00000000000000E+00   0.00000000000000E+00   0.00000000000000E+00   0.00000000000000E+00  -2.04271601522841E-13
     -1.44066146260006E-12  -1.64493306412290E-12  -1.25392961134541E-17   9.60000000000000E-02   9.60000000000000E-02
      0.00000000000000E+00   0.00000000000000E+00   0.00000000000000E+00   0.00000000000000E+00   0.00000000000000E+00
     -4.71481864693980E-17   1.30000000000000E-01   1.30000000000000E-01   0.00000000000000E+00   0.00000000000000E+00
      1.64108616498942E-12   3.84689913347556E-15   1.64493306412290E-12   1.17538824083238E-17   2.70000000000000E-01
      2.70000000000000E-01   0.00000000000000E+00   0.00000000000000E+00   0.00000000000000E+00   0.00000000000000E+00
      0.00000000000000E+00   4.79336001745283E-17
      2.50000000000000E-01
      0.00000000000000E+00   0.00000000000000E+00   0.00000000000000E+00   0.00000000000000E+00  -2.05559031065296E-13
     -1.34785052888884E-12  -1.55340955995414E-12  -1.25827659344073E-17   1.00000000000000E-01   1.00000000000000E-01
      0.00000000000000E+00   0.00000000000000E+00   0.00000000000000E+00   0.00000000000000E+00   0.00000000000000E+00
     -4.60116466370974E-17   1.30000000000000E-01   1.30000000000000E-01   0.00000000000000E+00   0.00000000000000E+00
      1.54958880331665E-12   3.82075663749010E-15   1.55340955995414E-12   1.17100607419765E-17   2.70000000000000E-01
      2.70000000000000E-01   0.00000000000000E+00   0.00000000000000E+00   0.00000000000000E+00   0.00000000000000E+00
      0.00000000000000E+00   4.68843518295282E-17
      2.60000000000000E-01
      0.00000000000000E+00   0.00000000000000E+00   0.00000000000000E+00   0.00000000000000E+00  -2.06848532701520E-13
     -1.26401284663416E-12  -1.47086137933568E-12  -1.26262206651244E-17   1.04000000000000E-01   1.04000000000000E-01
      0.00000000000000E+00   0.00000000000000E+00   0.00000000000000E+00   0.00000000000000E+00   0.00000000000000E+00
     -4.48751031104546E-17   1.30000000000000E-01   1.30000000000000E-01   0.00000000000000E+00   0.00000000000000E+00
      1.46706672170419E-12   3.79465763149503E-15   1.47086137933568E-12   1.16662165950420E-17   2.70000000000000E-01
      2.70000000000000E-01   0.00000000000000E+00   0.00000000000000E+00   0.00000000000000E+00   0.00000000000000E+00
      0.00000000000000E+00   4.58351071805370E-17
      2.70000000000000E-01
      0.00000000000000E+00   0.00000000000000E+00   0.00000000000000E+00   0.00000000000000E+00  -2.08140085334032E-13
     -1.18824030502536E-12  -1.39638039035939E-12  -1.26696605945042E-17   1.08000000000000E-01   1.08000000000000E-01
      0.00000000000000E+00   0.00000000000000E+00   0.00000000000000E+00   0.00000000000000E+00   0.00000000000000E+00
     -4.37385555117220E-17   1.30000000000000E-01   1.30000000000000E-01   0.00000000000000E+00   0.00000000000000E+00
      1.39261178754457E-12   3.76860281482503E-15   1.39638039035939E-12   1.16223495010083E-17   2.70000000000000E-01
      2.70000000000000E-01   0.00000000000000E+00   0.00000000000000E+00   0.00000000000000E+00   0.00000000000000E+00
      0.00000000000000E+00   4.47858666052180E-17
      2.80000000000000E-01
      0.00000000000000E+00   0.00000000000000E+00   0.00000000000000E+00   0.00000000000000E+00  -2.09433667954328E-13
     -1.11971465022064E-12  -1.32914831817496E-12  -1.27130860051548E-17   1.12000000000000E-01   1.12000000000000E-01
      0.00000000000000E+00   0.00000000000000E+00   0.00000000000000E+00   0.00000000000000E+00   0.00000000000000E+00
     -4.26020034608731E-17   1.30000000000000E-01   1.30000000000000E-01   0.00000000000000E+00   0.00000000000000E+00
      1.32540572522262E-12   3.74259295234763E-15   1.32914831817496E-12   1.15784589825109E-17   2.70000000000000E-01
      2.70000000000000E-01   0.00000000000000E+00   0.00000000000000E+00   0.00000000000000E+00   0.00000000000000E+00
      0.00000000000000E+00   4.37366304835170E-17
      2.90000000000000E-01
      0.00000000000000E+00   0.00000000000000E+00   0.00000000000000E+00   0.00000000000000E+00  -2.10729259651832E-13
     -1.05770007707550E-12  -1.26842933672733E-12  -1.27564971735428E-17   1.16000000000000E-01   1.16000000000000E-01
      0.00000000000000E+00   0.00000000000000E+00   0.00000000000000E+00   0.00000000000000E+00   0.00000000000000E+00
     -4.14654465753841E-17   1.30000000000000E-01   1.30000000000000E-01   0.00000000000000E+00   0.00000000000000E+00
      1.26471270788140E-12   3.71662884593020E-15   1.26842933672733E-12   1.15345445510482E-17   2.70000000000000E-01
      2.70000000000000E-01   0.00000000000000E+00   0.00000000000000E+00   0.00000000000000E+00   0.00000000000000E+00
      0.00000000000000E+00   4.26873991978788E-17
      3.00000000000000E-01
      0.00000000000000E+00   0.00000000000000E+00   0.00000000000000E+00   0.00000000000000E+00  -2.12026839625104E-13
     -1.00153632598331E-12  -1.21356316560842E-12  -1.27998943701385E-17   1.20000000000000E-01   1.20000000000000E-01
      0.00000000000000E+00   0.00000000000000E+00   0.00000000000000E+00   0.00000000000000E+00   0.00000000000000E+00
     -4.03288844700151E-17   1.30000000000000E-01   1.30000000000000E-01   0.00000000000000E+00   0.00000000000000E+00
      1.20987245426849E-12   3.69071133992551E-15   1.21356316560842E-12   1.14906057066884E-17   2.70000000000000E-01
      2.70000000000000E-01   0.00000000000000E+00   0.00000000000000E+00   0.00000000000000E+00   0.00000000000000E+00
      0.00000000000000E+00   4.16381731334651E-17
      3.10000000000000E-01
      0.00000000000000E+00   0.00000000000000E+00   0.00000000000000E+00   0.00000000000000E+00  -2.13326387195332E-13
     -9.50632265876130E-13  -1.16395865307146E-12  -1.28432778595572E-17   1.24000000000000E-01   1.24000000000000E-01
      0.00000000000000E+00   0.00000000000000E+00   0.00000000000000E+00   0.00000000000000E+00   0.00000000000000E+00
     -3.91923167565881E-17   1.30000000000000E-01   1.30000000000000E-01   0.00000000000000E+00   0.00000000000000E+00
      1.16029381174607E-12   3.66484132539007E-15   1.16395865307146E-12   1.14466419377699E-17   2.70000000000000E-01
      2.70000000000000E-01   0.00000000000000E+00   0.00000000000000E+00   0.00000000000000E+00   0.00000000000000E+00
      0.00000000000000E+00   4.05889526783754E-17
      3.20000000000000E-01
      0.00000000000000E+00   0.00000000000000E+00   0.00000000000000E+00   0.00000000000000E+00  -2.14627881815476E-13
     -9.04459944535795E-13  -1.11908782635127E-12  -1.28866479006979E-17   1.28000000000000E-01   1.28000000000000E-01
      0.00000000000000E+00   0.00000000000000E+00   0.00000000000000E+00   0.00000000000000E+00   0.00000000000000E+00
     -3.80557430437636E-17   1.30000000000000E-01   1.30000000000000E-01   0.00000000000000E+00   0.00000000000000E+00
      1.11544880662568E-12   3.63901972558952E-15   1.11908782635127E-12   1.14026527205924E-17   2.70000000000000E-01
      2.70000000000000E-01   0.00000000000000E+00   0.00000000000000E+00   0.00000000000000E+00   0.00000000000000E+00
      0.00000000000000E+00   3.95397382238691E-17
      3.30000000000000E-01
      0.00000000000000E+00   0.00000000000000E+00   0.00000000000000E+00   0.00000000000000E+00  -2.15931303072910E-13
     -8.62549087571492E-13  -1.07848039064440E-12  -1.29300047468775E-17   1.32000000000000E-01   1.32000000000000E-01
      0.00000000000000E+00   0.00000000000000E+00   0.00000000000000E+00   0.00000000000000E+00   0.00000000000000E+00
     -3.69191629368140E-17   1.30000000000000E-01   1.30000000000000E-01   0.00000000000000E+00   0.00000000000000E+00
      1.07486714314720E-12   3.61324749719704E-15   1.07848039064440E-12   1.13586375191007E-17   2.70000000000000E-01
      2.70000000000000E-01   0.00000000000000E+00   0.00000000000000E+00   0.00000000000000E+00   0.00000000000000E+00
      0.00000000000000E+00   3.84905301645908E-17
      3.40000000000000E-01
      0.00000000000000E+00   0.00000000000000E+00   0.00000000000000E+00   0.00000000000000E+00  -2.17236630707811E-13
     -8.24482027591873E-13  -1.04171865829968E-12  -1.29733486459623E-17   1.36000000000000E-01   1.36000000000000E-01
      0.00000000000000E+00   0.00000000000000E+00   0.00000000000000E+00   0.00000000000000E+00   0.00000000000000E+00
     -3.57825760373945E-17   1.30000000000000E-01   1.30000000000000E-01   0.00000000000000E+00   0.00000000000000E+00
      1.03813113266936E-12   3.58752563032058E-15   1.04171865829968E-12   1.13145957845592E-17   2.70000000000000E-01
      2.70000000000000E-01   0.00000000000000E+00   0.00000000000000E+00   0.00000000000000E+00   0.00000000000000E+00
      0.00000000000000E+00   3.74413288987977E-17
      3.50000000000000E-01
      0.00000000000000E+00   0.00000000000000E+00   0.00000000000000E+00   0.00000000000000E+00  -2.18543844604772E-13
     -7.89889045401840E-13  -1.00843289000661E-12  -1.30166798404960E-17   1.40000000000000E-01   1.40000000000000E-01
      0.00000000000000E+00   0.00000000000000E+00   0.00000000000000E+00   0.00000000000000E+00   0.00000000000000E+00
     -3.46459819433116E-17   1.30000000000000E-01   1.30000000000000E-01   0.00000000000000E+00   0.00000000000000E+00
      1.00487103486747E-12   3.56185513914304E-15   1.00843289000661E-12   1.12705269552176E-17   2.70000000000000E-01
      2.70000000000000E-01   0.00000000000000E+00   0.00000000000000E+00   0.00000000000000E+00   0.00000000000000E+00
      0.00000000000000E+00   3.63921348285900E-17
      3.60000000000000E-01
      0.00000000000000E+00   0.00000000000000E+00   0.00000000000000E+00   0.00000000000000E+00  -2.19852924812699E-13
     -7.58444105444365E-13  -9.78297030257064E-13  -1.30599985678248E-17   1.44000000000000E-01   1.44000000000000E-01
      0.00000000000000E+00   0.00000000000000E+00   0.00000000000000E+00   0.00000000000000E+00   0.00000000000000E+00
     -3.35093802482878E-17   1.30000000000000E-01   1.30000000000000E-01   0.00000000000000E+00   0.00000000000000E+00
      9.74760793194483E-13   3.53623706258088E-15   9.78297030257064E-13   1.12264304559677E-17   2.70000000000000E-01
      2.70000000000000E-01   0.00000000000000E+00   0.00000000000000E+00   0.00000000000000E+00   0.00000000000000E+00
      0.00000000000000E+00   3.53429483601448E-17
      3.70000000000000E-01
      0.00000000000000E+00   0.00000000000000E+00   0.00000000000000E+00   0.00000000000000E+00  -2.21163851540102E-13