DF-ISE text

Info {
  version   = 1.0
  type      = xyplot
  datasets  = [
    "time"
    "source OuterVoltage" "source InnerVoltage" "source QuasiFermiPotential" "source DisplacementCurrent" "source eCurrent"
    "source hCurrent" "source TotalCurrent" "source Charge" "topGate OuterVoltage" "topGate InnerVoltage"
    "topGate QuasiFermiPotential" "topGate DisplacementCurrent" "topGate eCurrent" "topGate hCurrent" "topGate TotalCurrent"
    "topGate Charge" "drain OuterVoltage" "drain InnerVoltage" "drain QuasiFermiPotential" "drain DisplacementCurrent"
    "drain eCurrent" "drain hCurrent" "drain TotalCurrent" "drain Charge" "bottomGate OuterVoltage"
    "bottomGate InnerVoltage" "bottomGate QuasiFermiPotential" "bottomGate DisplacementCurrent" "bottomGate eCurrent" "bottomGate hCurrent"
    "bottomGate TotalCurrent" "bottomGate Charge" ]
  functions = [
    Time
    OuterVoltage InnerVoltage QuasiFermiPotential DisplacementCurrent eCurrent
    hCurrent TotalCurrent Charge OuterVoltage InnerVoltage
    QuasiFermiPotential DisplacementCurrent eCurrent hCurrent TotalCurrent
    Charge OuterVoltage InnerVoltage QuasiFermiPotential DisplacementCurrent
    eCurrent hCurrent TotalCurrent Charge OuterVoltage
    InnerVoltage QuasiFermiPotential DisplacementCurrent eCurrent hCurrent
    TotalCurrent Charge ]
}

Data {
      1.00000000000000E-02
      0.00000000000000E+00   0.00000000000000E+00   0.00000000000000E+00   0.00000000000000E+00  -2.17950015679839E-13
     -2.23500693690926E-10  -2.23718643706605E-10  -1.29517393751697E-17   4.00000000000000E-03   4.00000000000000E-03
      0.00000000000000E+00   0.00000000000000E+00   0.00000000000000E+00   0.00000000000000E+00   0.00000000000000E+00
     -1.08801204046797E-16   2.60000000000000E-01   2.60000000000000E-01   0.00000000000000E+00   0.00000000000000E+00
      2.23713244753159E-10   5.39895344667745E-15   2.23718643706606E-10   1.41611163044399E-17   4.00000000000000E-01
      4.00000000000000E-01   0.00000000000000E+00   0.00000000000000E+00   0.00000000000000E+00   0.00000000000000E+00
      0.00000000000000E+00   1.07591827117527E-16
      2.00000000000000E-02
      0.00000000000000E+00   0.00000000000000E+00   0.00000000000000E+00   0.00000000000000E+00  -2.19269204271934E-13
     -2.10304286868998E-10  -2.10523556073270E-10  -1.29950769161095E-17   8.00000000000000E-03   8.00000000000000E-03
      0.00000000000000E+00   0.00000000000000E+00   0.00000000000000E+00   0.00000000000000E+00   0.00000000000000E+00
     -1.07665107253775E-16   2.60000000000000E-01   2.60000000000000E-01   0.00000000000000E+00   0.00000000000000E+00
      2.10518185832482E-10   5.37024078788260E-15   2.10523556073270E-10   1.41180485017473E-17   4.00000000000000E-01
      4.00000000000000E-01   0.00000000000000E+00   0.00000000000000E+00   0.00000000000000E+00   0.00000000000000E+00
      0.00000000000000E+00   1.06542135668137E-16
      3.00000000000000E-02
      0.00000000000000E+00   0.00000000000000E+00   0.00000000000000E+00   0.00000000000000E+00  -2.20589927322798E-13
     -1.97884235520546E-10  -1.98104825447869E-10  -1.30384018715606E-17   1.20000000000000E-02   1.20000000000000E-02
      0.00000000000000E+00   0.00000000000000E+00   0.00000000000000E+00   0.00000000000000E+00   0.00000000000000E+00
     -1.06529012849008E-16   2.60000000000000E-01   2.60000000000000E-01   0.00000000000000E+00   0.00000000000000E+00
      1.98099483878223E-10   5.34156964556562E-15   1.98104825447869E-10   1.40749728857581E-17   4.00000000000000E-01
      4.00000000000000E-01   0.00000000000000E+00   0.00000000000000E+00   0.00000000000000E+00   0.00000000000000E+00
      0.00000000000000E+00   1.05492441834811E-16
      4.00000000000000E-02
      0.00000000000000E+00   0.00000000000000E+00   0.00000000000000E+00   0.00000000000000E+00  -2.21912193535792E-13
     -1.86199841965038E-10  -1.86421754158574E-10  -1.30817144764039E-17   1.60000000000000E-02   1.60000000000000E-02
      0.00000000000000E+00   0.00000000000000E+00   0.00000000000000E+00   0.00000000000000E+00   0.00000000000000E+00
     -1.05392920644552E-16   2.60000000000000E-01   2.60000000000000E-01   0.00000000000000E+00   0.00000000000000E+00
      1.86416441217850E-10   5.31294072383798E-15   1.86421754158574E-10   1.40318893157405E-17   4.00000000000000E-01
      4.00000000000000E-01   0.00000000000000E+00   0.00000000000000E+00   0.00000000000000E+00   0.00000000000000E+00
      0.00000000000000E+00   1.04442745805215E-16
      5.00000000000000E-02
      0.00000000000000E+00   0.00000000000000E+00   0.00000000000000E+00   0.00000000000000E+00  -2.23236009463133E-13
     -1.75212183410163E-10  -1.75435419419626E-10  -1.31250149605018E-17   2.00000000000000E-02   2.00000000000000E-02
      0.00000000000000E+00   0.00000000000000E+00   0.00000000000000E+00   0.00000000000000E+00   0.00000000000000E+00
     -1.04256830453594E-16   2.60000000000000E-01   2.60000000000000E-01   0.00000000000000E+00   0.00000000000000E+00
      1.75430135064958E-10   5.28435466778414E-15   1.75435419419626E-10   1.39887976481963E-17   4.00000000000000E-01
      4.00000000000000E-01   0.00000000000000E+00   0.00000000000000E+00   0.00000000000000E+00   0.00000000000000E+00
      0.00000000000000E+00   1.03393047765899E-16
      6.00000000000000E-02
      0.00000000000000E+00   0.00000000000000E+00   0.00000000000000E+00   0.00000000000000E+00  -2.24561379697352E-13
     -1.64884050712214E-10  -1.65108612091911E-10  -1.31683035488157E-17   2.40000000000000E-02   2.40000000000000E-02
      0.00000000000000E+00   0.00000000000000E+00   0.00000000000000E+00   0.00000000000000E+00   0.00000000000000E+00
     -1.03120742090362E-16   2.60000000000000E-01   2.60000000000000E-01   0.00000000000000E+00   0.00000000000000E+00
      1.65103356279838E-10   5.25581207257484E-15   1.65108612091911E-10   1.39456977367880E-17   4.00000000000000E-01
      4.00000000000000E-01   0.00000000000000E+00   0.00000000000000E+00   0.00000000000000E+00   0.00000000000000E+00
      0.00000000000000E+00   1.02343347902389E-16
      7.00000000000000E-02
      0.00000000000000E+00   0.00000000000000E+00   0.00000000000000E+00   0.00000000000000E+00  -2.25888307044474E-13
     -1.55179889119231E-10  -1.55405777426275E-10  -1.32115804615208E-17   2.80000000000000E-02   2.80000000000000E-02
      0.00000000000000E+00   0.00000000000000E+00   0.00000000000000E+00   0.00000000000000E+00   0.00000000000000E+00
     -1.01984655370028E-16   2.60000000000000E-01   2.60000000000000E-01   0.00000000000000E+00   0.00000000000000E+00
      1.55400550112797E-10   5.22731347764814E-15   1.55405777426275E-10   1.39025894322649E-17   4.00000000000000E-01
      4.00000000000000E-01   0.00000000000000E+00   0.00000000000000E+00   0.00000000000000E+00   0.00000000000000E+00
      0.00000000000000E+00   1.01293646399284E-16
      8.00000000000000E-02
      0.00000000000000E+00   0.00000000000000E+00   0.00000000000000E+00   0.00000000000000E+00  -2.27216792685327E-13
     -1.46065740872662E-10  -1.46292957665348E-10  -1.32548459141179E-17   3.20000000000000E-02   3.20000000000000E-02
      0.00000000000000E+00   0.00000000000000E+00   0.00000000000000E+00   0.00000000000000E+00   0.00000000000000E+00
     -1.00848570108616E-16   2.60000000000000E-01   2.60000000000000E-01   0.00000000000000E+00   0.00000000000000E+00
      1.46287758805971E-10   5.19885937692974E-15   1.46292957665348E-10   1.38594725823880E-17   4.00000000000000E-01
      4.00000000000000E-01   0.00000000000000E+00   0.00000000000000E+00   0.00000000000000E+00   0.00000000000000E+00
      0.00000000000000E+00   1.00243943440346E-16
      9.00000000000000E-02
      0.00000000000000E+00   0.00000000000000E+00   0.00000000000000E+00   0.00000000000000E+00  -2.28546836323412E-13
     -1.37509189554918E-10  -1.37737736391241E-10  -1.32981001175422E-17   3.60000000000000E-02   3.60000000000000E-02
      0.00000000000000E+00   0.00000000000000E+00   0.00000000000000E+00   0.00000000000000E+00   0.00000000000000E+00
     -9.97124861229046E-17   2.60000000000000E-01   2.60000000000000E-01   0.00000000000000E+00   0.00000000000000E+00
      1.37732565941033E-10   5.17045020853838E-15   1.37737736391241E-10   1.38163470318540E-17   4.00000000000000E-01
      4.00000000000000E-01   0.00000000000000E+00   0.00000000000000E+00   0.00000000000000E+00   0.00000000000000E+00
      0.00000000000000E+00   9.91942392085928E-17
      1.00000000000000E-01
      0.00000000000000E+00   0.00000000000000E+00   0.00000000000000E+00   0.00000000000000E+00  -2.29878436318517E-13
     -1.29479306081244E-10  -1.29709184517562E-10  -1.33413432782702E-17   4.00000000000000E-02   4.00000000000000E-02
      0.00000000000000E+00   0.00000000000000E+00   0.00000000000000E+00   0.00000000000000E+00   0.00000000000000E+00
     -9.85764032303386E-17   2.60000000000000E-01   2.60000000000000E-01   0.00000000000000E+00   0.00000000000000E+00
      1.29704042431204E-10   5.14208635820838E-15   1.29709184517562E-10   1.37732126222164E-17   4.00000000000000E-01
      4.00000000000000E-01   0.00000000000000E+00   0.00000000000000E+00   0.00000000000000E+00   0.00000000000000E+00
      0.00000000000000E+00   9.81445338863925E-17
      1.10000000000000E-01
      0.00000000000000E+00   0.00000000000000E+00   0.00000000000000E+00   0.00000000000000E+00  -2.31211589811775E-13
     -1.21946596244599E-10  -1.22177807834411E-10  -1.33845755984229E-17   4.40000000000000E-02   4.40000000000000E-02
      0.00000000000000E+00   0.00000000000000E+00   0.00000000000000E+00   0.00000000000000E+00   0.00000000000000E+00
     -9.74403212489351E-17   2.60000000000000E-01   2.60000000000000E-01   0.00000000000000E+00   0.00000000000000E+00
      1.22172694066248E-10   5.11376816254341E-15   1.22177807834411E-10   1.37300691918064E-17   4.00000000000000E-01
      4.00000000000000E-01   0.00000000000000E+00   0.00000000000000E+00   0.00000000000000E+00   0.00000000000000E+00
      0.00000000000000E+00   9.70948276555515E-17
      1.20000000000000E-01
      0.00000000000000E+00   0.00000000000000E+00   0.00000000000000E+00   0.00000000000000E+00  -2.32546292838684E-13
     -1.14882949731763E-10  -1.15115496024602E-10  -1.34277972758671E-17   4.80000000000000E-02   4.80000000000000E-02
      0.00000000000000E+00   0.00000000000000E+00   0.00000000000000E+00   0.00000000000000E+00   0.00000000000000E+00
     -9.63042399971920E-17   2.60000000000000E-01   2.60000000000000E-01   0.00000000000000E+00   0.00000000000000E+00
      1.15110410528695E-10   5.08549590682931E-15   1.15115496024602E-10   1.36869165756515E-17   4.00000000000000E-01
      4.00000000000000E-01   0.00000000000000E+00   0.00000000000000E+00   0.00000000000000E+00   0.00000000000000E+00
      0.00000000000000E+00   9.60451206974077E-17
      1.30000000000000E-01
      0.00000000000000E+00   0.00000000000000E+00   0.00000000000000E+00   0.00000000000000E+00  -2.33882540432918E-13
     -1.08261590537792E-10  -1.08495473078225E-10  -1.34710085043143E-17   5.20000000000000E-02   5.20000000000000E-02
      0.00000000000000E+00   0.00000000000000E+00   0.00000000000000E+00   0.00000000000000E+00   0.00000000000000E+00
     -9.51681592939977E-17   2.60000000000000E-01   2.60000000000000E-01   0.00000000000000E+00   0.00000000000000E+00
      1.08490415808402E-10   5.05726982281315E-15   1.08495473078225E-10   1.36437546053925E-17   4.00000000000000E-01
      4.00000000000000E-01   0.00000000000000E+00   0.00000000000000E+00   0.00000000000000E+00   0.00000000000000E+00
      0.00000000000000E+00   9.49954131929195E-17
      1.40000000000000E-01
      0.00000000000000E+00   0.00000000000000E+00   0.00000000000000E+00   0.00000000000000E+00  -2.35220326723556E-13
     -1.02057028714083E-10  -1.02292249040807E-10  -1.35142094734167E-17   5.60000000000000E-02   5.60000000000000E-02
      0.00000000000000E+00   0.00000000000000E+00   0.00000000000000E+00   0.00000000000000E+00   0.00000000000000E+00
     -9.40320789585389E-17   2.60000000000000E-01   2.60000000000000E-01   0.00000000000000E+00   0.00000000000000E+00
      1.02287219950709E-10   5.02909009787049E-15   1.02292249040807E-10   1.36005831091985E-17   4.00000000000000E-01
      4.00000000000000E-01   0.00000000000000E+00   0.00000000000000E+00   0.00000000000000E+00   0.00000000000000E+00
      0.00000000000000E+00   9.39457053227571E-17
      1.50000000000000E-01
      0.00000000000000E+00   0.00000000000000E+00   0.00000000000000E+00   0.00000000000000E+00  -2.36559645019406E-13
     -9.62450133927751E-11  -9.64815730377945E-11  -1.35574003688610E-17   6.00000000000000E-02   6.00000000000000E-02
      0.00000000000000E+00   0.00000000000000E+00   0.00000000000000E+00   0.00000000000000E+00   0.00000000000000E+00
     -9.28959988102112E-17   2.60000000000000E-01   2.60000000000000E-01   0.00000000000000E+00   0.00000000000000E+00
      9.64765720809267E-11   5.00095686779580E-15   9.64815730377944E-11   1.35574019116805E-17   4.00000000000000E-01
      4.00000000000000E-01   0.00000000000000E+00   0.00000000000000E+00   0.00000000000000E+00   0.00000000000000E+00
      0.00000000000000E+00   9.28959972673917E-17
      1.60000000000000E-01
      0.00000000000000E+00   0.00000000000000E+00   0.00000000000000E+00   0.00000000000000E+00  -2.37900487893818E-13
     -9.08024870370793E-11  -9.10403875249731E-11  -1.36005813724603E-17   6.40000000000000E-02   6.40000000000000E-02
      0.00000000000000E+00   0.00000000000000E+00   0.00000000000000E+00   0.00000000000000E+00   0.00000000000000E+00
     -9.17599186685284E-17   2.60000000000000E-01   2.60000000000000E-01   0.00000000000000E+00   0.00000000000000E+00
      9.10354146547512E-11   4.97287022181137E-15   9.10403875249730E-11   1.35142108338029E-17   4.00000000000000E-01
      4.00000000000000E-01   0.00000000000000E+00   0.00000000000000E+00   0.00000000000000E+00   0.00000000000000E+00
      0.00000000000000E+00   9.18462892071858E-17
      1.70000000000000E-01
      0.00000000000000E+00   0.00000000000000E+00   0.00000000000000E+00   0.00000000000000E+00  -2.39242847253307E-13
     -8.57075408732758E-11  -8.59467837205291E-11  -1.36437526622428E-17   6.80000000000000E-02   6.80000000000000E-02
      0.00000000000000E+00   0.00000000000000E+00   0.00000000000000E+00   0.00000000000000E+00   0.00000000000000E+00
     -9.06238383530322E-17   2.60000000000000E-01   2.60000000000000E-01   0.00000000000000E+00   0.00000000000000E+00
      8.59418388903302E-11   4.94483019894224E-15   8.59467837205291E-11   1.34710096927923E-17   4.00000000000000E-01
      4.00000000000000E-01   0.00000000000000E+00   0.00000000000000E+00   0.00000000000000E+00   0.00000000000000E+00
      0.00000000000000E+00   9.07965813224827E-17
      1.80000000000000E-01
      0.00000000000000E+00   0.00000000000000E+00   0.00000000000000E+00   0.00000000000000E+00  -2.40586714409063E-13
     -8.09393714657296E-11  -8.11799581801387E-11  -1.36869144125396E-17   7.20000000000000E-02   7.20000000000000E-02
      0.00000000000000E+00   0.00000000000000E+00   0.00000000000000E+00   0.00000000000000E+00   0.00000000000000E+00
     -8.94877576832023E-17   2.60000000000000E-01   2.60000000000000E-01   0.00000000000000E+00   0.00000000000000E+00
      8.11750413433392E-11   4.91683679950907E-15   8.11799581801387E-11   1.34277983020458E-17   4.00000000000000E-01
      4.00000000000000E-01   0.00000000000000E+00   0.00000000000000E+00   0.00000000000000E+00   0.00000000000000E+00
      0.00000000000000E+00   8.97468737936961E-17
      1.90000000000000E-01
      0.00000000000000E+00   0.00000000000000E+00   0.00000000000000E+00   0.00000000000000E+00  -2.41932080136686E-13
     -7.64782384012498E-11  -7.67201704813865E-11  -1.37300667940690E-17   7.60000000000000E-02   7.60000000000000E-02
      0.00000000000000E+00   0.00000000000000E+00   0.00000000000000E+00   0.00000000000000E+00   0.00000000000000E+00
     -8.83516764783660E-17   2.60000000000000E-01   2.60000000000000E-01   0.00000000000000E+00   0.00000000000000E+00
      7.67152815914116E-11   4.88888997486048E-15   7.67201704813865E-11   1.33845764710354E-17   4.00000000000000E-01
      4.00000000000000E-01   0.00000000000000E+00   0.00000000000000E+00   0.00000000000000E+00   0.00000000000000E+00
      0.00000000000000E+00   8.86971668013996E-17
      2.00000000000000E-01
      0.00000000000000E+00   0.00000000000000E+00   0.00000000000000E+00   0.00000000000000E+00  -2.43278934732055E-13
     -7.23054230536125E-11  -7.25487019883445E-11  -1.37732099740197E-17   8.00000000000000E-02   8.00000000000000E-02
      0.00000000000000E+00   0.00000000000000E+00   0.00000000000000E+00   0.00000000000000E+00   0.00000000000000E+00
     -8.72155945576085E-17   2.60000000000000E-01   2.60000000000000E-01   0.00000000000000E+00   0.00000000000000E+00
      7.25438409987063E-11   4.86098963820104E-15   7.25487019883445E-11   1.33413440052114E-17   4.00000000000000E-01
      4.00000000000000E-01   0.00000000000000E+00   0.00000000000000E+00   0.00000000000000E+00   0.00000000000000E+00
      0.00000000000000E+00   8.76474605264169E-17
      2.10000000000000E-01
      0.00000000000000E+00   0.00000000000000E+00   0.00000000000000E+00   0.00000000000000E+00  -2.44627268064994E-13
     -6.84031884029690E-11  -6.86478156710340E-11  -1.38163441161318E-17   8.40000000000000E-02   8.40000000000000E-02
      0.00000000000000E+00   0.00000000000000E+00   0.00000000000000E+00   0.00000000000000E+00   0.00000000000000E+00
     -8.60795117396823E-17   2.60000000000000E-01   2.60000000000000E-01   0.00000000000000E+00   0.00000000000000E+00
      6.86429825353718E-11   4.83313566219812E-15   6.86478156710340E-11   1.32981007059032E-17   4.00000000000000E-01
      4.00000000000000E-01   0.00000000000000E+00   0.00000000000000E+00   0.00000000000000E+00   0.00000000000000E+00
      0.00000000000000E+00   8.65977551499110E-17
      2.20000000000000E-01
      0.00000000000000E+00   0.00000000000000E+00   0.00000000000000E+00   0.00000000000000E+00  -2.45977069624519E-13
     -6.47547398883610E-11  -6.50007169579855E-11  -1.38594693807750E-17   8.80000000000000E-02   8.80000000000000E-02
      0.00000000000000E+00   0.00000000000000E+00   0.00000000000000E+00   0.00000000000000E+00   0.00000000000000E+00
     -8.49434278429170E-17   2.60000000000000E-01   2.60000000000000E-01   0.00000000000000E+00   0.00000000000000E+00
      6.49959116301038E-11   4.80532788162138E-15   6.50007169579854E-11   1.32548463702171E-17   4.00000000000000E-01
      4.00000000000000E-01   0.00000000000000E+00   0.00000000000000E+00   0.00000000000000E+00   0.00000000000000E+00
      0.00000000000000E+00   8.55480508534749E-17
      2.30000000000000E-01
      0.00000000000000E+00   0.00000000000000E+00   0.00000000000000E+00   0.00000000000000E+00  -2.47328328563380E-13
     -6.13441872745596E-11  -6.15915156031230E-11  -1.39025859250263E-17   9.20000000000000E-02   9.20000000000000E-02
      0.00000000000000E+00   0.00000000000000E+00   0.00000000000000E+00   0.00000000000000E+00   0.00000000000000E+00
     -8.38073426851280E-17   2.60000000000000E-01   2.60000000000000E-01   0.00000000000000E+00   0.00000000000000E+00
      6.15867380370262E-11   4.77756609684635E-15   6.15915156031230E-11   1.32115807909329E-17   4.00000000000000E-01
      4.00000000000000E-01   0.00000000000000E+00   0.00000000000000E+00   0.00000000000000E+00   0.00000000000000E+00
      0.00000000000000E+00   8.44983478192214E-17
      2.40000000000000E-01
      0.00000000000000E+00   0.00000000000000E+00   0.00000000000000E+00   0.00000000000000E+00  -2.48681033736177E-13
     -5.81565075170681E-11  -5.84051885508043E-11  -1.39456939027445E-17   9.60000000000000E-02   9.60000000000000E-02
      0.00000000000000E+00   0.00000000000000E+00   0.00000000000000E+00   0.00000000000000E+00   0.00000000000000E+00
     -8.26712560835267E-17   2.60000000000000E-01   2.60000000000000E-01   0.00000000000000E+00   0.00000000000000E+00
      5.84004387007278E-11   4.74985007639599E-15   5.84051885508042E-11   1.31683037563970E-17   4.00000000000000E-01
      4.00000000000000E-01   0.00000000000000E+00   0.00000000000000E+00   0.00000000000000E+00   0.00000000000000E+00
      0.00000000000000E+00   8.34486462298742E-17
      2.50000000000000E-01
      0.00000000000000E+00   0.00000000000000E+00   0.00000000000000E+00   0.00000000000000E+00  -2.50035173736246E-13
     -5.51775086113437E-11  -5.54275437850799E-11  -1.39887934646436E-17   1.00000000000000E-01   1.00000000000000E-01
      0.00000000000000E+00   0.00000000000000E+00   0.00000000000000E+00   0.00000000000000E+00   0.00000000000000E+00
     -8.15351678546281E-17   2.60000000000000E-01   2.60000000000000E-01   0.00000000000000E+00   0.00000000000000E+00
      5.54228216055220E-11   4.72217955796846E-15   5.54275437850800E-11   1.31250150504132E-17   4.00000000000000E-01
      4.00000000000000E-01   0.00000000000000E+00   0.00000000000000E+00   0.00000000000000E+00   0.00000000000000E+00
      0.00000000000000E+00   8.23989462688585E-17
      2.60000000000000E-01
      0.00000000000000E+00   0.00000000000000E+00   0.00000000000000E+00   0.00000000000000E+00  -2.51390736927834E-13
     -5.23937944142016E-11  -5.26451851511295E-11  -1.40318847583640E-17   1.04000000000000E-01   1.04000000000000E-01
      0.00000000000000E+00   0.00000000000000E+00   0.00000000000000E+00   0.00000000000000E+00   0.00000000000000E+00
     -8.03990778141593E-17   2.60000000000000E-01   2.60000000000000E-01   0.00000000000000E+00   0.00000000000000E+00
      5.26404905968744E-11   4.69455425496493E-15   5.26451851511294E-11   1.30817144521307E-17   4.00000000000000E-01
      4.00000000000000E-01   0.00000000000000E+00   0.00000000000000E+00   0.00000000000000E+00   0.00000000000000E+00
      0.00000000000000E+00   8.13492481203925E-17
      2.70000000000000E-01
      0.00000000000000E+00   0.00000000000000E+00   0.00000000000000E+00   0.00000000000000E+00  -2.52747711475846E-13
     -4.97927304269113E-11  -5.00454781383872E-11  -1.40749679285424E-17   1.08000000000000E-01   1.08000000000000E-01
      0.00000000000000E+00   0.00000000000000E+00   0.00000000000000E+00   0.00000000000000E+00   0.00000000000000E+00
     -7.92629857769676E-17   2.60000000000000E-01   2.60000000000000E-01   0.00000000000000E+00   0.00000000000000E+00
      5.00408111645314E-11   4.66697385572341E-15   5.00454781383871E-11   1.30384017359300E-17   4.00000000000000E-01
      4.00000000000000E-01   0.00000000000000E+00   0.00000000000000E+00   0.00000000000000E+00   0.00000000000000E+00
      0.00000000000000E+00   8.02995519695800E-17
      2.80000000000000E-01
      0.00000000000000E+00   0.00000000000000E+00   0.00000000000000E+00   0.00000000000000E+00  -2.54106085372814E-13
     -4.73624105308096E-11  -4.76165166161824E-11  -1.41180431168799E-17   1.12000000000000E-01   1.12000000000000E-01
      0.00000000000000E+00   0.00000000000000E+00   0.00000000000000E+00   0.00000000000000E+00   0.00000000000000E+00
     -7.81268915569271E-17   2.60000000000000E-01   2.60000000000000E-01   0.00000000000000E+00   0.00000000000000E+00
      4.76118771781520E-11   4.63943803039586E-15   4.76165166161824E-11   1.29950766713050E-17   4.00000000000000E-01
      4.00000000000000E-01   0.00000000000000E+00   0.00000000000000E+00   0.00000000000000E+00   0.00000000000000E+00
      0.00000000000000E+00   7.92498580025020E-17
      2.90000000000000E-01
      0.00000000000000E+00   0.00000000000000E+00   0.00000000000000E+00   0.00000000000000E+00  -2.55465846463003E-13
     -4.50916246672800E-11  -4.53470905137430E-11  -1.41611104622077E-17   1.16000000000000E-01   1.16000000000000E-01
      0.00000000000000E+00   0.00000000000000E+00   0.00000000000000E+00   0.00000000000000E+00   0.00000000000000E+00
     -7.69907949668458E-17   2.60000000000000E-01   2.60000000000000E-01   0.00000000000000E+00   0.00000000000000E+00
      4.53424785673112E-11   4.61194643186290E-15   4.53470905137430E-11   1.29517390227427E-17   4.00000000000000E-01
      4.00000000000000E-01   0.00000000000000E+00   0.00000000000000E+00   0.00000000000000E+00   0.00000000000000E+00
      0.00000000000000E+00   7.82001664063108E-17
      3.00000000000000E-01
      0.00000000000000E+00   0.00000000000000E+00   0.00000000000000E+00   0.00000000000000E+00  -2.56826982464910E-13
     -4.29698274547614E-11  -4.32266544372263E-11  -1.42041701005524E-17   1.20000000000000E-01   1.20000000000000E-01
      0.00000000000000E+00   0.00000000000000E+00   0.00000000000000E+00   0.00000000000000E+00   0.00000000000000E+00
     -7.58546958183709E-17   2.60000000000000E-01   2.60000000000000E-01   0.00000000000000E+00   0.00000000000000E+00
      4.32220699385252E-11   4.58449870104316E-15   4.32266544372262E-11   1.29083885496002E-17   4.00000000000000E-01
      4.00000000000000E-01   0.00000000000000E+00   0.00000000000000E+00   0.00000000000000E+00   0.00000000000000E+00
      0.00000000000000E+00   7.71504773693232E-17
      3.10000000000000E-01
      0.00000000000000E+00   0.00000000000000E+00   0.00000000000000E+00   0.00000000000000E+00  -2.58189480990874E-13
     -4.09871077360639E-11  -4.12452972170547E-11  -1.42472221651990E-17   1.24000000000000E-01   1.24000000000000E-01
      0.00000000000000E+00   0.00000000000000E+00   0.00000000000000E+00   0.00000000000000E+00   0.00000000000000E+00
     -7.47185939218944E-17   2.60000000000000E-01   2.60000000000000E-01   0.00000000000000E+00   0.00000000000000E+00
      4.12407401225851E-11   4.55709446957490E-15   4.12452972170547E-11   1.28650250059777E-17   4.00000000000000E-01
      4.00000000000000E-01   0.00000000000000E+00   0.00000000000000E+00   0.00000000000000E+00   0.00000000000000E+00
      0.00000000000000E+00   7.61007910811157E-17
      3.20000000000000E-01
      0.00000000000000E+00   0.00000000000000E+00   0.00000000000000E+00   0.00000000000000E+00  -2.59553329564862E-13
     -3.91341590496972E-11  -3.93937123792621E-11  -1.42902667867521E-17   1.28000000000000E-01   1.28000000000000E-01
      0.00000000000000E+00   0.00000000000000E+00   0.00000000000000E+00   0.00000000000000E+00   0.00000000000000E+00
     -7.35824890864569E-17   2.60000000000000E-01   2.60000000000000E-01   0.00000000000000E+00   0.00000000000000E+00
      3.93891826458967E-11   4.52973336540975E-15   3.93937123792621E-11   1.28216481405895E-17   4.00000000000000E-01
      4.00000000000000E-01   0.00000000000000E+00   0.00000000000000E+00   0.00000000000000E+00   0.00000000000000E+00
      0.00000000000000E+00   7.50511077326195E-17
      3.30000000000000E-01
      0.00000000000000E+00   0.00000000000000E+00   0.00000000000000E+00   0.00000000000000E+00  -2.60918515638782E-13
     -3.74022510191970E-11  -3.76631695348358E-11  -1.43333040931965E-17   1.32000000000000E-01   1.32000000000000E-01
      0.00000000000000E+00   0.00000000000000E+00   0.00000000000000E+00   0.00000000000000E+00   0.00000000000000E+00
     -7.24463811196516E-17   2.60000000000000E-01   2.60000000000000E-01   0.00000000000000E+00   0.00000000000000E+00
      3.76586671198211E-11   4.50241501460073E-15   3.76631695348357E-11   1.27782576966307E-17   4.00000000000000E-01
      4.00000000000000E-01   0.00000000000000E+00   0.00000000000000E+00   0.00000000000000E+00   0.00000000000000E+00
      0.00000000000000E+00   7.40014275162174E-17
      3.40000000000000E-01
      0.00000000000000E+00   0.00000000000000E+00   0.00000000000000E+00   0.00000000000000E+00  -2.62285026606045E-13
     -3.57832016545756E-11  -3.60454866811816E-11  -1.43763342099556E-17   1.36000000000000E-01   1.36000000000000E-01
      0.00000000000000E+00   0.00000000000000E+00   0.00000000000000E+00   0.00000000000000E+00   0.00000000000000E+00
     -7.13102698275260E-17   2.60000000000000E-01   2.60000000000000E-01   0.00000000000000E+00   0.00000000000000E+00
      3.60410115421338E-11   4.47513904783512E-15   3.60454866811817E-11   1.27348534116408E-17   4.00000000000000E-01
      4.00000000000000E-01   0.00000000000000E+00   0.00000000000000E+00   0.00000000000000E+00   0.00000000000000E+00
      0.00000000000000E+00   7.29517506258407E-17
      3.50000000000000E-01
      0.00000000000000E+00   0.00000000000000E+00   0.00000000000000E+00   0.00000000000000E+00  -2.63652849814562E-13
     -3.42693505600449E-11  -3.45330034098594E-11  -1.44193572599485E-17   1.40000000000000E-01   1.40000000000000E-01
      0.00000000000000E+00   0.00000000000000E+00   0.00000000000000E+00   0.00000000000000E+00   0.00000000000000E+00
     -7.01741550144839E-17   2.60000000000000E-01   2.60000000000000E-01   0.00000000000000E+00   0.00000000000000E+00
      3.45285555047571E-11   4.44790510237442E-15   3.45330034098594E-11   1.26914350173644E-17   4.00000000000000E-01
      4.00000000000000E-01   0.00000000000000E+00   0.00000000000000E+00   0.00000000000000E+00   0.00000000000000E+00
      0.00000000000000E+00   7.19020772570680E-17
      3.60000000000000E-01
      0.00000000000000E+00   0.00000000000000E+00   0.00000000000000E+00   0.00000000000000E+00  -2.65021972577483E-13
     -3.28535330420827E-11  -3.31185550146602E-11  -1.44623733636462E-17   1.44000000000000E-01   1.44000000000000E-01
      0.00000000000000E+00   0.00000000000000E+00   0.00000000000000E+00   0.00000000000000E+00   0.00000000000000E+00
     -6.90380364831856E-17   2.60000000000000E-01   2.60000000000000E-01   0.00000000000000E+00   0.00000000000000E+00
      3.31141343018331E-11   4.42071282711473E-15   3.31185550146602E-11   1.26480022396076E-17   4.00000000000000E-01
      4.00000000000000E-01   0.00000000000000E+00   0.00000000000000E+00   0.00000000000000E+00   0.00000000000000E+00
      0.00000000000000E+00   7.08524076072242E-17
      3.70000000000000E-01
      0.00000000000000E+00   0.00000000000000E+00   0.00000000000000E+00   0.00000000000000E+00  -2.66392382183406E-13