DF-ISE text

Info {
  version   = 1.0
  type      = xyplot
  datasets  = [
    "time"
    "source OuterVoltage" "source InnerVoltage" "source QuasiFermiPotential" "source DisplacementCurrent" "source eCurrent"
    "source hCurrent" "source TotalCurrent" "source Charge" "topGate OuterVoltage" "topGate InnerVoltage"
    "topGate QuasiFermiPotential" "topGate DisplacementCurrent" "topGate eCurrent" "topGate hCurrent" "topGate TotalCurrent"
    "topGate Charge" "drain OuterVoltage" "drain InnerVoltage" "drain QuasiFermiPotential" "drain DisplacementCurrent"
    "drain eCurrent" "drain hCurrent" "drain TotalCurrent" "drain Charge" "bottomGate OuterVoltage"
    "bottomGate InnerVoltage" "bottomGate QuasiFermiPotential" "bottomGate DisplacementCurrent" "bottomGate eCurrent" "bottomGate hCurrent"
    "bottomGate TotalCurrent" "bottomGate Charge" ]
  functions = [
    Time
    OuterVoltage InnerVoltage QuasiFermiPotential DisplacementCurrent eCurrent
    hCurrent TotalCurrent Charge OuterVoltage InnerVoltage
    QuasiFermiPotential DisplacementCurrent eCurrent hCurrent TotalCurrent
    Charge OuterVoltage InnerVoltage QuasiFermiPotential DisplacementCurrent
    eCurrent hCurrent TotalCurrent Charge OuterVoltage
    InnerVoltage QuasiFermiPotential DisplacementCurrent eCurrent hCurrent
    TotalCurrent Charge ]
}

Data {
      1.00000000000000E-02
      0.00000000000000E+00   0.00000000000000E+00   0.00000000000000E+00   0.00000000000000E+00  -1.00699089999643E-13
     -5.82580920548358E-11  -5.83587911448354E-11  -8.47403245275968E-18   4.00000000000000E-03   4.00000000000000E-03
      0.00000000000000E+00   0.00000000000000E+00   0.00000000000000E+00   0.00000000000000E+00   0.00000000000000E+00
     -3.67907861172187E-18   2.40000000000000E-01   2.40000000000000E-01   0.00000000000000E+00   0.00000000000000E+00
      5.83514622721355E-11   7.32887269997766E-15   5.83587911448354E-11   1.80179795565059E-17   0.00000000000000E+00
      0.00000000000000E+00   0.00000000000000E+00   0.00000000000000E+00   0.00000000000000E+00   0.00000000000000E+00
      0.00000000000000E+00  -5.86486849202437E-18
      2.00000000000000E-02
      0.00000000000000E+00   0.00000000000000E+00   0.00000000000000E+00   0.00000000000000E+00  -1.01681156628508E-13
     -5.59648558582482E-11  -5.60665370148767E-11  -8.52162920739822E-18   8.00000000000000E-03   8.00000000000000E-03
      0.00000000000000E+00   0.00000000000000E+00   0.00000000000000E+00   0.00000000000000E+00   0.00000000000000E+00
     -2.54099023132042E-18   2.40000000000000E-01   2.40000000000000E-01   0.00000000000000E+00   0.00000000000000E+00
      5.60591795942892E-11   7.35742058743172E-15   5.60665370148766E-11   1.79751891935219E-17   0.00000000000000E+00
      0.00000000000000E+00   0.00000000000000E+00   0.00000000000000E+00   0.00000000000000E+00   0.00000000000000E+00
      0.00000000000000E+00  -6.91256975480329E-18
      3.00000000000000E-02
      0.00000000000000E+00   0.00000000000000E+00   0.00000000000000E+00   0.00000000000000E+00  -1.02668137284178E-13
     -5.38171179466307E-11  -5.39197860839149E-11  -8.56912147312124E-18   1.20000000000000E-02   1.20000000000000E-02
      0.00000000000000E+00   0.00000000000000E+00   0.00000000000000E+00   0.00000000000000E+00   0.00000000000000E+00
     -1.40295646768898E-18   2.40000000000000E-01   2.40000000000000E-01   0.00000000000000E+00   0.00000000000000E+00
      5.39124045168302E-11   7.38156708476454E-15   5.39197860839150E-11   1.79324033632787E-17   0.00000000000000E+00
      0.00000000000000E+00   0.00000000000000E+00   0.00000000000000E+00   0.00000000000000E+00   0.00000000000000E+00
      0.00000000000000E+00  -7.96032542246845E-18
      4.00000000000000E-02
      0.00000000000000E+00   0.00000000000000E+00   0.00000000000000E+00   0.00000000000000E+00  -1.03660005809114E-13
     -5.18069211142664E-11  -5.19105811200755E-11  -8.61651159517827E-18   1.60000000000000E-02   1.60000000000000E-02
      0.00000000000000E+00   0.00000000000000E+00   0.00000000000000E+00   0.00000000000000E+00   0.00000000000000E+00
     -2.64975887474159E-19   2.40000000000000E-01   2.40000000000000E-01   0.00000000000000E+00   0.00000000000000E+00
      5.19031794917746E-11   7.40162830085596E-15   5.19105811200755E-11   1.78896215671428E-17   0.00000000000000E+00
      0.00000000000000E+00   0.00000000000000E+00   0.00000000000000E+00   0.00000000000000E+00   0.00000000000000E+00
      0.00000000000000E+00  -9.00813408449037E-18
      5.00000000000000E-02
      0.00000000000000E+00   0.00000000000000E+00   0.00000000000000E+00   0.00000000000000E+00  -1.04656735279206E-13
     -4.99267406244706E-11  -5.00313973597498E-11  -8.66380186576683E-18   2.00000000000000E-02   2.00000000000000E-02
      0.00000000000000E+00   0.00000000000000E+00   0.00000000000000E+00   0.00000000000000E+00   0.00000000000000E+00
      8.72952897841502E-19   2.40000000000000E-01   2.40000000000000E-01   0.00000000000000E+00   0.00000000000000E+00
      5.00239794605260E-11   7.41789922382901E-15   5.00313973597498E-11   1.78468433409013E-17   0.00000000000000E+00
      0.00000000000000E+00   0.00000000000000E+00   0.00000000000000E+00   0.00000000000000E+00   0.00000000000000E+00
      0.00000000000000E+00  -1.00559943729760E-17
      6.00000000000000E-02
      0.00000000000000E+00   0.00000000000000E+00   0.00000000000000E+00   0.00000000000000E+00  -1.05658298046881E-13
     -4.81694647026143E-11  -4.82751230006611E-11  -8.71099452511318E-18   2.40000000000000E-02   2.40000000000000E-02
      0.00000000000000E+00   0.00000000000000E+00   0.00000000000000E+00   0.00000000000000E+00   0.00000000000000E+00
      2.01083123389066E-18   2.40000000000000E-01   2.40000000000000E-01   0.00000000000000E+00   0.00000000000000E+00
      4.82676923460693E-11   7.43065459181550E-15   4.82751230006611E-11   1.78040682521407E-17   0.00000000000000E+00
      0.00000000000000E+00   0.00000000000000E+00   0.00000000000000E+00   0.00000000000000E+00   0.00000000000000E+00
      0.00000000000000E+00  -1.11039049609182E-17
      7.00000000000000E-02
      0.00000000000000E+00   0.00000000000000E+00   0.00000000000000E+00   0.00000000000000E+00  -1.06664665782139E-13
     -4.65283756694800E-11  -4.66350403352621E-11  -8.75809176253993E-18   2.80000000000000E-02   2.80000000000000E-02
      0.00000000000000E+00   0.00000000000000E+00   0.00000000000000E+00   0.00000000000000E+00   0.00000000000000E+00
      3.14866042525762E-18   2.40000000000000E-01   2.40000000000000E-01   0.00000000000000E+00   0.00000000000000E+00
      4.66276001859671E-11   7.44014929499583E-15   4.66350403352621E-11   1.77612958978247E-17   0.00000000000000E+00
      0.00000000000000E+00   0.00000000000000E+00   0.00000000000000E+00   0.00000000000000E+00   0.00000000000000E+00
      0.00000000000000E+00  -1.21518645605424E-17
      8.00000000000000E-02
      0.00000000000000E+00   0.00000000000000E+00   0.00000000000000E+00   0.00000000000000E+00  -1.07675809511641E-13
     -4.49971317164948E-11  -4.51048075260065E-11  -8.80509571751986E-18   3.20000000000000E-02   3.20000000000000E-02
      0.00000000000000E+00   0.00000000000000E+00   0.00000000000000E+00   0.00000000000000E+00   0.00000000000000E+00
      4.28644173720839E-18   2.40000000000000E-01   2.40000000000000E-01   0.00000000000000E+00   0.00000000000000E+00
      4.50973609008541E-11   7.44662515231187E-15   4.51048075260064E-11   1.77185259020543E-17   0.00000000000000E+00
      0.00000000000000E+00   0.00000000000000E+00   0.00000000000000E+00   0.00000000000000E+00   0.00000000000000E+00
      0.00000000000000E+00  -1.31998719217428E-17
      9.00000000000000E-02
      0.00000000000000E+00   0.00000000000000E+00   0.00000000000000E+00   0.00000000000000E+00  -1.08691699655948E-13
     -4.35697492923525E-11  -4.36784409920084E-11  -8.85200848071547E-18   3.60000000000000E-02   3.60000000000000E-02
      0.00000000000000E+00   0.00000000000000E+00   0.00000000000000E+00   0.00000000000000E+00   0.00000000000000E+00
      5.42417639732183E-18   2.40000000000000E-01   2.40000000000000E-01   0.00000000000000E+00   0.00000000000000E+00
      4.36709906925255E-11   7.45029948294120E-15   4.36784409920084E-11   1.76757579139975E-17   0.00000000000000E+00
      0.00000000000000E+00   0.00000000000000E+00   0.00000000000000E+00   0.00000000000000E+00   0.00000000000000E+00
      0.00000000000000E+00  -1.42479258306039E-17
      1.00000000000000E-01
      0.00000000000000E+00   0.00000000000000E+00   0.00000000000000E+00   0.00000000000000E+00  -1.09712306065027E-13
     -4.22405861440472E-11  -4.23502984501122E-11  -8.89883209500429E-18   4.00000000000000E-02   4.00000000000000E-02
      0.00000000000000E+00   0.00000000000000E+00   0.00000000000000E+00   0.00000000000000E+00   0.00000000000000E+00
      6.56186559702890E-18   2.40000000000000E-01   2.40000000000000E-01   0.00000000000000E+00   0.00000000000000E+00
      4.23428470651607E-11   7.45138495154382E-15   4.23502984501122E-11   1.76329916059740E-17   0.00000000000000E+00
      0.00000000000000E+00   0.00000000000000E+00   0.00000000000000E+00   0.00000000000000E+00   0.00000000000000E+00
      0.00000000000000E+00  -1.52960251079987E-17
      1.10000000000000E-01
      0.00000000000000E+00   0.00000000000000E+00   0.00000000000000E+00   0.00000000000000E+00  -1.10737598052099E-13
     -4.10043249357948E-11  -4.11150625338469E-11  -8.94556855648917E-18   4.40000000000000E-02   4.40000000000000E-02
      0.00000000000000E+00   0.00000000000000E+00   0.00000000000000E+00   0.00000000000000E+00   0.00000000000000E+00
      7.69951049306626E-18   2.40000000000000E-01   2.40000000000000E-01   0.00000000000000E+00   0.00000000000000E+00
      4.11076124626847E-11   7.45007116221048E-15   4.11150625338469E-11   1.75902266716846E-17   0.00000000000000E+00
      0.00000000000000E+00   0.00000000000000E+00   0.00000000000000E+00   0.00000000000000E+00   0.00000000000000E+00
      0.00000000000000E+00  -1.63441686082618E-17
      1.20000000000000E-01
      0.00000000000000E+00   0.00000000000000E+00   0.00000000000000E+00   0.00000000000000E+00  -1.11767544425935E-13
     -3.98559575069389E-11  -3.99677250513648E-11  -8.99221981549367E-18   4.80000000000000E-02   4.80000000000000E-02
      0.00000000000000E+00   0.00000000000000E+00   0.00000000000000E+00   0.00000000000000E+00   0.00000000000000E+00
      8.83711220885050E-18   2.40000000000000E-01   2.40000000000000E-01   0.00000000000000E+00   0.00000000000000E+00
      3.99602785147818E-11   7.44653658301760E-15   3.99677250513648E-11   1.75474628245729E-17   0.00000000000000E+00
      0.00000000000000E+00   0.00000000000000E+00   0.00000000000000E+00   0.00000000000000E+00   0.00000000000000E+00
      0.00000000000000E+00  -1.73923552179297E-17
      1.30000000000000E-01
      0.00000000000000E+00   0.00000000000000E+00   0.00000000000000E+00   0.00000000000000E+00  -1.12802113521673E-13
     -3.87907697193513E-11  -3.89035718328730E-11  -9.03878777754226E-18   5.20000000000000E-02   5.20000000000000E-02
      0.00000000000000E+00   0.00000000000000E+00   0.00000000000000E+00   0.00000000000000E+00   0.00000000000000E+00
      9.97467183577803E-18   2.40000000000000E-01   2.40000000000000E-01   0.00000000000000E+00   0.00000000000000E+00
      3.88961308836163E-11   7.44094925675429E-15   3.89035718328731E-11   1.75046997963100E-17   0.00000000000000E+00
      0.00000000000000E+00   0.00000000000000E+00   0.00000000000000E+00   0.00000000000000E+00   0.00000000000000E+00
      0.00000000000000E+00  -1.84405838545458E-17
      1.40000000000000E-01
      0.00000000000000E+00   0.00000000000000E+00   0.00000000000000E+00   0.00000000000000E+00  -1.13841273230246E-13
     -3.78043268931428E-11  -3.79181681663730E-11  -9.08527430432499E-18   5.60000000000000E-02   5.60000000000000E-02
      0.00000000000000E+00   0.00000000000000E+00   0.00000000000000E+00   0.00000000000000E+00   0.00000000000000E+00
      1.11121904344561E-17   2.40000000000000E-01   2.40000000000000E-01   0.00000000000000E+00   0.00000000000000E+00
      3.79107347029046E-11   7.43346346837440E-15   3.79181681663730E-11   1.74619373353927E-17   0.00000000000000E+00
      0.00000000000000E+00   0.00000000000000E+00   0.00000000000000E+00   0.00000000000000E+00   0.00000000000000E+00
      0.00000000000000E+00  -1.94888534655238E-17
      1.50000000000000E-01
      0.00000000000000E+00   0.00000000000000E+00   0.00000000000000E+00   0.00000000000000E+00  -1.14884991026486E-13
     -3.68924598306068E-11  -3.70073448216333E-11  -9.13168121464674E-18   6.00000000000000E-02   6.00000000000000E-02
      0.00000000000000E+00   0.00000000000000E+00   0.00000000000000E+00   0.00000000000000E+00   0.00000000000000E+00
      1.22496690358693E-17   2.40000000000000E-01   2.40000000000000E-01   0.00000000000000E+00   0.00000000000000E+00
      3.69999206006152E-11   7.42422101807361E-15   3.70073448216333E-11   1.74191752058458E-17   0.00000000000000E+00
      0.00000000000000E+00   0.00000000000000E+00   0.00000000000000E+00   0.00000000000000E+00   0.00000000000000E+00
      0.00000000000000E+00  -2.05371630270683E-17
      1.60000000000000E-01
      0.00000000000000E+00   0.00000000000000E+00   0.00000000000000E+00   0.00000000000000E+00  -1.15933233996010E-13
     -3.60512514207214E-11  -3.61671846547174E-11  -9.17801028536093E-18   6.40000000000000E-02   6.40000000000000E-02
      0.00000000000000E+00   0.00000000000000E+00   0.00000000000000E+00   0.00000000000000E+00   0.00000000000000E+00
      1.33871086424864E-17   2.40000000000000E-01   2.40000000000000E-01   0.00000000000000E+00   0.00000000000000E+00
      3.61597712962517E-11   7.41335846574168E-15   3.61671846547174E-11   1.73764131860215E-17   0.00000000000000E+00
      0.00000000000000E+00   0.00000000000000E+00   0.00000000000000E+00   0.00000000000000E+00   0.00000000000000E+00
      0.00000000000000E+00  -2.15855115431469E-17
      1.70000000000000E-01
      0.00000000000000E+00   0.00000000000000E+00   0.00000000000000E+00   0.00000000000000E+00  -1.16985968860931E-13
     -3.52770237917955E-11  -3.53940097606564E-11  -9.22426325228731E-18   6.80000000000000E-02   6.80000000000000E-02
      0.00000000000000E+00   0.00000000000000E+00   0.00000000000000E+00   0.00000000000000E+00   0.00000000000000E+00
      1.45245102293104E-17   2.40000000000000E-01   2.40000000000000E-01   0.00000000000000E+00   0.00000000000000E+00
      3.53866087634061E-11   7.40099725034720E-15   3.53940097606564E-11   1.73336510674879E-17   0.00000000000000E+00
      0.00000000000000E+00   0.00000000000000E+00   0.00000000000000E+00   0.00000000000000E+00   0.00000000000000E+00
      0.00000000000000E+00  -2.26338980445110E-17
      1.80000000000000E-01
      0.00000000000000E+00   0.00000000000000E+00   0.00000000000000E+00   0.00000000000000E+00  -1.18043162004510E-13
     -3.45663260388741E-11  -3.46843692008786E-11  -9.27044181111434E-18   7.20000000000000E-02   7.20000000000000E-02
      0.00000000000000E+00   0.00000000000000E+00   0.00000000000000E+00   0.00000000000000E+00   0.00000000000000E+00
      1.56618747448773E-17   2.40000000000000E-01   2.40000000000000E-01   0.00000000000000E+00   0.00000000000000E+00
      3.46769819480513E-11   7.38725282736082E-15   3.46843692008786E-11   1.72908886540000E-17   0.00000000000000E+00
      0.00000000000000E+00   0.00000000000000E+00   0.00000000000000E+00   0.00000000000000E+00   0.00000000000000E+00
      0.00000000000000E+00  -2.36823215877630E-17
      1.90000000000000E-01
      0.00000000000000E+00   0.00000000000000E+00   0.00000000000000E+00   0.00000000000000E+00  -1.19104779494799E-13
     -3.39159224857865E-11  -3.40350272652813E-11  -9.31654761828564E-18   7.60000000000000E-02   7.60000000000000E-02
      0.00000000000000E+00   0.00000000000000E+00   0.00000000000000E+00   0.00000000000000E+00   0.00000000000000E+00
      1.67992031122053E-17   2.40000000000000E-01   2.40000000000000E-01   0.00000000000000E+00   0.00000000000000E+00
      3.40276550328783E-11   7.37223240301017E-15   3.40350272652813E-11   1.72481257605467E-17   0.00000000000000E+00
      0.00000000000000E+00   0.00000000000000E+00   0.00000000000000E+00   0.00000000000000E+00   0.00000000000000E+00
      0.00000000000000E+00  -2.47307812544664E-17
      2.00000000000000E-01
      0.00000000000000E+00   0.00000000000000E+00   0.00000000000000E+00   0.00000000000000E+00  -1.20170787107370E-13
     -3.33227814852117E-11  -3.34429522723191E-11  -9.36258229187077E-18   8.00000000000000E-02   8.00000000000000E-02
      0.00000000000000E+00   0.00000000000000E+00   0.00000000000000E+00   0.00000000000000E+00   0.00000000000000E+00
      1.79364962296981E-17   2.40000000000000E-01   2.40000000000000E-01   0.00000000000000E+00   0.00000000000000E+00
      3.34355962378763E-11   7.35603444280290E-15   3.34429522723191E-11   1.72053622124681E-17   0.00000000000000E+00
      0.00000000000000E+00   0.00000000000000E+00   0.00000000000000E+00   0.00000000000000E+00   0.00000000000000E+00
      0.00000000000000E+00  -2.57792761502954E-17
      2.10000000000000E-01
      0.00000000000000E+00   0.00000000000000E+00   0.00000000000000E+00   0.00000000000000E+00  -1.21241150347211E-13
     -3.27840647466033E-11  -3.29053058969505E-11  -9.40854741242035E-18   8.40000000000000E-02   8.40000000000000E-02
      0.00000000000000E+00   0.00000000000000E+00   0.00000000000000E+00   0.00000000000000E+00   0.00000000000000E+00
      1.90737549720061E-17   2.40000000000000E-01   2.40000000000000E-01   0.00000000000000E+00   0.00000000000000E+00
      3.28979671473030E-11   7.33874964753768E-15   3.29053058969505E-11   1.71625978446380E-17   0.00000000000000E+00
      0.00000000000000E+00   0.00000000000000E+00   0.00000000000000E+00   0.00000000000000E+00   0.00000000000000E+00
      0.00000000000000E+00  -2.68278054042237E-17
      2.20000000000000E-01
      0.00000000000000E+00   0.00000000000000E+00   0.00000000000000E+00   0.00000000000000E+00  -1.22315834469867E-13
     -3.22971171823091E-11  -3.24194330167790E-11  -9.45444452380559E-18   8.80000000000000E-02   8.80000000000000E-02
      0.00000000000000E+00   0.00000000000000E+00   0.00000000000000E+00   0.00000000000000E+00   0.00000000000000E+00
      2.02109801908469E-17   2.40000000000000E-01   2.40000000000000E-01   0.00000000000000E+00   0.00000000000000E+00
      3.24121125532005E-11   7.32046357851743E-15   3.24194330167790E-11   1.71198325007065E-17   0.00000000000000E+00
      0.00000000000000E+00   0.00000000000000E+00   0.00000000000000E+00   0.00000000000000E+00   0.00000000000000E+00
      0.00000000000000E+00  -2.78763681677478E-17
      2.30000000000000E-01
      0.00000000000000E+00   0.00000000000000E+00   0.00000000000000E+00   0.00000000000000E+00  -1.23394804501900E-13
     -3.18594572556877E-11  -3.19828520601896E-11  -9.50027513404216E-18   9.20000000000000E-02   9.20000000000000E-02
      0.00000000000000E+00   0.00000000000000E+00   0.00000000000000E+00   0.00000000000000E+00   0.00000000000000E+00
      2.13481727157887E-17   2.40000000000000E-01   2.40000000000000E-01   0.00000000000000E+00   0.00000000000000E+00
      3.19755508056756E-11   7.30125451400977E-15   3.19828520601896E-11   1.70770660323974E-17   0.00000000000000E+00
      0.00000000000000E+00   0.00000000000000E+00   0.00000000000000E+00   0.00000000000000E+00   0.00000000000000E+00
      0.00000000000000E+00  -2.89249636141439E-17
      2.40000000000000E-01
      0.00000000000000E+00   0.00000000000000E+00   0.00000000000000E+00   0.00000000000000E+00  -1.24478025260771E-13
     -3.14687678291306E-11  -3.15932458543914E-11  -9.54604071609868E-18   9.60000000000000E-02   9.60000000000000E-02
      0.00000000000000E+00   0.00000000000000E+00   0.00000000000000E+00   0.00000000000000E+00   0.00000000000000E+00
      2.24853333549984E-17   2.40000000000000E-01   2.40000000000000E-01   0.00000000000000E+00   0.00000000000000E+00
      3.15859646602878E-11   7.28119410366244E-15   3.15932458543914E-11   1.70342982988575E-17   0.00000000000000E+00
      0.00000000000000E+00   0.00000000000000E+00   0.00000000000000E+00   0.00000000000000E+00   0.00000000000000E+00
      0.00000000000000E+00  -2.99735909377572E-17
      2.50000000000000E-01
      0.00000000000000E+00   0.00000000000000E+00   0.00000000000000E+00   0.00000000000000E+00  -1.25565461374193E-13
     -3.11228875029042E-11  -3.12484529642784E-11  -9.59174270868982E-18   1.00000000000000E-01   1.00000000000000E-01
      0.00000000000000E+00   0.00000000000000E+00   0.00000000000000E+00   0.00000000000000E+00   0.00000000000000E+00
      2.36224628959563E-17   2.40000000000000E-01   2.40000000000000E-01   0.00000000000000E+00   0.00000000000000E+00
      3.12411926130696E-11   7.26035120884622E-15   3.12484529642784E-11   1.69915291660530E-17   0.00000000000000E+00
      0.00000000000000E+00   0.00000000000000E+00   0.00000000000000E+00   0.00000000000000E+00   0.00000000000000E+00
      0.00000000000000E+00  -3.10222493533195E-17
      2.60000000000000E-01
      0.00000000000000E+00   0.00000000000000E+00   0.00000000000000E+00   0.00000000000000E+00  -1.26657077299057E-13
     -3.08198024234810E-11  -3.09464595007800E-11  -9.63738251705402E-18   1.04000000000000E-01   1.04000000000000E-01
      0.00000000000000E+00   0.00000000000000E+00   0.00000000000000E+00   0.00000000000000E+00   0.00000000000000E+00
      2.47595621061402E-17   2.40000000000000E-01   2.40000000000000E-01   0.00000000000000E+00   0.00000000000000E+00
      3.09392207139417E-11   7.23878683837043E-15   3.09464595007800E-11   1.69487585062097E-17   0.00000000000000E+00
      0.00000000000000E+00   0.00000000000000E+00   0.00000000000000E+00   0.00000000000000E+00   0.00000000000000E+00
      0.00000000000000E+00  -3.20709380952958E-17
      2.70000000000000E-01
      0.00000000000000E+00   0.00000000000000E+00   0.00000000000000E+00   0.00000000000000E+00  -1.27752837339994E-13
     -3.05576385709170E-11  -3.06853914082570E-11  -9.68296151371628E-18   1.08000000000000E-01   1.08000000000000E-01
      0.00000000000000E+00   0.00000000000000E+00   0.00000000000000E+00   0.00000000000000E+00   0.00000000000000E+00
      2.58966317336800E-17   2.40000000000000E-01   2.40000000000000E-01   0.00000000000000E+00   0.00000000000000E+00
      3.06781748495811E-11   7.21655867591308E-15   3.06853914082570E-11   1.69059861972930E-17   0.00000000000000E+00
      0.00000000000000E+00   0.00000000000000E+00   0.00000000000000E+00   0.00000000000000E+00   0.00000000000000E+00
      0.00000000000000E+00  -3.31196564172567E-17
      2.80000000000000E-01
      0.00000000000000E+00   0.00000000000000E+00   0.00000000000000E+00   0.00000000000000E+00  -1.28852705667642E-13
     -3.03346545016623E-11  -3.04635072073299E-11  -9.72848103923575E-18   1.12000000000000E-01   1.12000000000000E-01
      0.00000000000000E+00   0.00000000000000E+00   0.00000000000000E+00   0.00000000000000E+00   0.00000000000000E+00
      2.70336725079854E-17   2.40000000000000E-01   2.40000000000000E-01   0.00000000000000E+00   0.00000000000000E+00
      3.04563134871469E-11   7.19372018305299E-15   3.04635072073299E-11   1.68632121225264E-17   0.00000000000000E+00
      0.00000000000000E+00   0.00000000000000E+00   0.00000000000000E+00   0.00000000000000E+00   0.00000000000000E+00
      0.00000000000000E+00  -3.41684035912761E-17
      2.90000000000000E-01
      0.00000000000000E+00   0.00000000000000E+00   0.00000000000000E+00   0.00000000000000E+00  -1.29956646336687E-13
     -3.01492345438970E-11  -3.02791911902337E-11  -9.77394240293858E-18   1.16000000000000E-01   1.16000000000000E-01
      0.00000000000000E+00   0.00000000000000E+00   0.00000000000000E+00   0.00000000000000E+00   0.00000000000000E+00
      2.81706851403469E-17   2.40000000000000E-01   2.40000000000000E-01   0.00000000000000E+00   0.00000000000000E+00
      3.02720208706727E-11   7.17031956098675E-15   3.02791911902337E-11   1.68204361699433E-17   0.00000000000000E+00
      0.00000000000000E+00   0.00000000000000E+00   0.00000000000000E+00   0.00000000000000E+00   0.00000000000000E+00
      0.00000000000000E+00  -3.52171789073516E-17
      3.00000000000000E-01
      0.00000000000000E+00   0.00000000000000E+00   0.00000000000000E+00   0.00000000000000E+00  -1.31064623303739E-13
     -2.99998824424452E-11  -3.01309470657489E-11  -9.81934688363604E-18   1.20000000000000E-01   1.20000000000000E-01
      0.00000000000000E+00   0.00000000000000E+00   0.00000000000000E+00   0.00000000000000E+00   0.00000000000000E+00
      2.93076703245133E-17   2.40000000000000E-01   2.40000000000000E-01   0.00000000000000E+00   0.00000000000000E+00
      3.01238006623856E-11   7.14640336332731E-15   3.01309470657489E-11   1.67776582319711E-17   0.00000000000000E+00
      0.00000000000000E+00   0.00000000000000E+00   0.00000000000000E+00   0.00000000000000E+00   0.00000000000000E+00
      0.00000000000000E+00  -3.62659816728484E-17
      3.10000000000000E-01
      0.00000000000000E+00   0.00000000000000E+00   0.00000000000000E+00   0.00000000000000E+00  -1.32176600445087E-13
     -2.98852154334310E-11  -3.00173920338761E-11  -9.86469573032800E-18   1.24000000000000E-01   1.24000000000000E-01
      0.00000000000000E+00   0.00000000000000E+00   0.00000000000000E+00   0.00000000000000E+00   0.00000000000000E+00
      3.04446287372459E-17   2.40000000000000E-01   2.40000000000000E-01   0.00000000000000E+00   0.00000000000000E+00
      3.00102700217106E-11   7.12201216555206E-15   3.00173920338761E-11   1.67348782050452E-17   0.00000000000000E+00
      0.00000000000000E+00   0.00000000000000E+00   0.00000000000000E+00   0.00000000000000E+00   0.00000000000000E+00
      0.00000000000000E+00  -3.73148112119631E-17
      3.20000000000000E-01
      0.00000000000000E+00   0.00000000000000E+00   0.00000000000000E+00   0.00000000000000E+00  -1.33292541574390E-13
     -2.98039587588564E-11  -2.99372513004308E-11  -9.90999016289227E-18   1.28000000000000E-01   1.28000000000000E-01
      0.00000000000000E+00   0.00000000000000E+00   0.00000000000000E+00   0.00000000000000E+00   0.00000000000000E+00
      3.15815610388506E-17   2.40000000000000E-01   2.40000000000000E-01   0.00000000000000E+00   0.00000000000000E+00
      2.99301541152633E-11   7.09718516745363E-15   2.99372513004307E-11   1.66920959892494E-17   0.00000000000000E+00
      0.00000000000000E+00   0.00000000000000E+00   0.00000000000000E+00   0.00000000000000E+00   0.00000000000000E+00
      0.00000000000000E+00  -3.83636668652077E-17
      3.30000000000000E-01
      0.00000000000000E+00   0.00000000000000E+00   0.00000000000000E+00   0.00000000000000E+00  -1.34412410460331E-13
     -2.97549405995017E-11  -2.98893530099621E-11  -9.95523137275942E-18   1.32000000000000E-01   1.32000000000000E-01
      0.00000000000000E+00   0.00000000000000E+00   0.00000000000000E+00   0.00000000000000E+00   0.00000000000000E+00
      3.27184678736906E-17   2.40000000000000E-01   2.40000000000000E-01   0.00000000000000E+00   0.00000000000000E+00
      2.98822810517238E-11   7.07195823832618E-15   2.98893530099621E-11   1.66493114879817E-17   0.00000000000000E+00
      0.00000000000000E+00   0.00000000000000E+00   0.00000000000000E+00   0.00000000000000E+00   0.00000000000000E+00
      0.00000000000000E+00  -3.94125479889128E-17
      3.40000000000000E-01
      0.00000000000000E+00   0.00000000000000E+00   0.00000000000000E+00   0.00000000000000E+00  -1.35536170844273E-13
     -2.97370874290404E-11  -2.98726235998847E-11  -1.00004205235739E-17   1.36000000000000E-01   1.36000000000000E-01
      0.00000000000000E+00   0.00000000000000E+00   0.00000000000000E+00   0.00000000000000E+00   0.00000000000000E+00
      3.38553498706787E-17   2.40000000000000E-01   2.40000000000000E-01   0.00000000000000E+00   0.00000000000000E+00
      2.98655772361022E-11   7.04636378249609E-15   2.98726235998847E-11   1.66065246076437E-17   0.00000000000000E+00
      0.00000000000000E+00   0.00000000000000E+00   0.00000000000000E+00   0.00000000000000E+00   0.00000000000000E+00
      0.00000000000000E+00  -4.04614539547485E-17
      3.50000000000000E-01
      0.00000000000000E+00   0.00000000000000E+00   0.00000000000000E+00   0.00000000000000E+00  -1.36663786457918E-13
     -2.97494197845414E-11  -2.98860835709994E-11  -1.00455587518410E-17   1.40000000000000E-01   1.40000000000000E-01
      0.00000000000000E+00   0.00000000000000E+00   0.00000000000000E+00   0.00000000000000E+00   0.00000000000000E+00
      3.49922076437520E-17   2.40000000000000E-01   2.40000000000000E-01   0.00000000000000E+00   0.00000000000000E+00
      2.98790631385710E-11   7.02043242835503E-15   2.98860835709994E-11   1.65637352573509E-17   0.00000000000000E+00
      0.00000000000000E+00   0.00000000000000E+00   0.00000000000000E+00   0.00000000000000E+00   0.00000000000000E+00
      0.00000000000000E+00  -4.15103841492618E-17
      3.60000000000000E-01
      0.00000000000000E+00   0.00000000000000E+00   0.00000000000000E+00   0.00000000000000E+00  -1.37795221041007E-13
     -2.97910484446104E-11  -2.99288436656514E-11  -1.00906471675605E-17   1.44000000000000E-01   1.44000000000000E-01
      0.00000000000000E+00   0.00000000000000E+00   0.00000000000000E+00   0.00000000000000E+00   0.00000000000000E+00
      3.61290417923288E-17   2.40000000000000E-01   2.40000000000000E-01   0.00000000000000E+00   0.00000000000000E+00
      2.99218494737239E-11   6.99419192752791E-15   2.99288436656514E-11   1.65209433486629E-17   0.00000000000000E+00
      0.00000000000000E+00   0.00000000000000E+00   0.00000000000000E+00   0.00000000000000E+00   0.00000000000000E+00
      0.00000000000000E+00  -4.25593379734312E-17
      3.70000000000000E-01
      0.00000000000000E+00   0.00000000000000E+00   0.00000000000000E+00   0.00000000000000E+00  -1.38930438359029E-13