DF-ISE text

Info {
  version   = 1.0
  type      = xyplot
  datasets  = [
    "time"
    "source OuterVoltage" "source InnerVoltage" "source QuasiFermiPotential" "source DisplacementCurrent" "source eCurrent"
    "source hCurrent" "source TotalCurrent" "source Charge" "topGate OuterVoltage" "topGate InnerVoltage"
    "topGate QuasiFermiPotential" "topGate DisplacementCurrent" "topGate eCurrent" "topGate hCurrent" "topGate TotalCurrent"
    "topGate Charge" "drain OuterVoltage" "drain InnerVoltage" "drain QuasiFermiPotential" "drain DisplacementCurrent"
    "drain eCurrent" "drain hCurrent" "drain TotalCurrent" "drain Charge" "bottomGate OuterVoltage"
    "bottomGate InnerVoltage" "bottomGate QuasiFermiPotential" "bottomGate DisplacementCurrent" "bottomGate eCurrent" "bottomGate hCurrent"
    "bottomGate TotalCurrent" "bottomGate Charge" ]
  functions = [
    Time
    OuterVoltage InnerVoltage QuasiFermiPotential DisplacementCurrent eCurrent
    hCurrent TotalCurrent Charge OuterVoltage InnerVoltage
    QuasiFermiPotential DisplacementCurrent eCurrent hCurrent TotalCurrent
    Charge OuterVoltage InnerVoltage QuasiFermiPotential DisplacementCurrent
    eCurrent hCurrent TotalCurrent Charge OuterVoltage
    InnerVoltage QuasiFermiPotential DisplacementCurrent eCurrent hCurrent
    TotalCurrent Charge ]
}

Data {
      1.00000000000000E-02
      0.00000000000000E+00   0.00000000000000E+00   0.00000000000000E+00   0.00000000000000E+00  -1.49115974062294E-13
     -8.91702547428375E-12  -9.06614144834605E-12  -1.05389845875621E-17   4.00000000000000E-03   4.00000000000000E-03
      0.00000000000000E+00   0.00000000000000E+00   0.00000000000000E+00   0.00000000000000E+00   0.00000000000000E+00
     -5.01135453124611E-17   1.70000000000000E-01   1.70000000000000E-01   0.00000000000000E+00   0.00000000000000E+00
      9.06044331537872E-12   5.69813296732104E-15   9.06614144834604E-12   1.45913919393170E-17   1.80000000000000E-01
      1.80000000000000E-01   0.00000000000000E+00   0.00000000000000E+00   0.00000000000000E+00   0.00000000000000E+00
      0.00000000000000E+00   4.60611379607062E-17
      2.00000000000000E-02
      0.00000000000000E+00   0.00000000000000E+00   0.00000000000000E+00   0.00000000000000E+00  -1.50286123357237E-13
     -8.04670180926513E-12  -8.19698793262237E-12  -1.05835914028543E-17   8.00000000000000E-03   8.00000000000000E-03
      0.00000000000000E+00   0.00000000000000E+00   0.00000000000000E+00   0.00000000000000E+00   0.00000000000000E+00
     -4.89768477261222E-17   1.70000000000000E-01   1.70000000000000E-01   0.00000000000000E+00   0.00000000000000E+00
      8.19131871807761E-12   5.66921454476903E-15   8.19698793262237E-12   1.45483920531157E-17   1.80000000000000E-01
      1.80000000000000E-01   0.00000000000000E+00   0.00000000000000E+00   0.00000000000000E+00   0.00000000000000E+00
      0.00000000000000E+00   4.50120470758609E-17
      3.00000000000000E-02
      0.00000000000000E+00   0.00000000000000E+00   0.00000000000000E+00   0.00000000000000E+00  -1.51459648999519E-13
     -7.25378341712842E-12  -7.40524306612794E-12  -1.06281598659795E-17   1.20000000000000E-02   1.20000000000000E-02
      0.00000000000000E+00   0.00000000000000E+00   0.00000000000000E+00   0.00000000000000E+00   0.00000000000000E+00
     -4.78401661759060E-17   1.70000000000000E-01   1.70000000000000E-01   0.00000000000000E+00   0.00000000000000E+00
      7.39960275119641E-12   5.64031493152928E-15   7.40524306612794E-12   1.45053858617016E-17   1.80000000000000E-01
      1.80000000000000E-01   0.00000000000000E+00   0.00000000000000E+00   0.00000000000000E+00   0.00000000000000E+00
      0.00000000000000E+00   4.39629401801839E-17
      4.00000000000000E-02
      0.00000000000000E+00   0.00000000000000E+00   0.00000000000000E+00   0.00000000000000E+00  -1.52636520651667E-13
     -6.53218565351836E-12  -6.68482217417003E-12  -1.06726907945352E-17   1.60000000000000E-02   1.60000000000000E-02
      0.00000000000000E+00   0.00000000000000E+00   0.00000000000000E+00   0.00000000000000E+00   0.00000000000000E+00
     -4.67035001840108E-17   1.70000000000000E-01   1.70000000000000E-01   0.00000000000000E+00   0.00000000000000E+00
      6.67921073914766E-12   5.61143502236748E-15   6.68482217417003E-12   1.44623732292573E-17   1.80000000000000E-01
      1.80000000000000E-01   0.00000000000000E+00   0.00000000000000E+00   0.00000000000000E+00   0.00000000000000E+00
      0.00000000000000E+00   4.29138177492887E-17
      5.00000000000000E-02
      0.00000000000000E+00   0.00000000000000E+00   0.00000000000000E+00   0.00000000000000E+00  -1.53816707767828E-13
     -5.87622993950779E-12  -6.03004664727562E-12  -1.07171849871353E-17   2.00000000000000E-02   2.00000000000000E-02
      0.00000000000000E+00   0.00000000000000E+00   0.00000000000000E+00   0.00000000000000E+00   0.00000000000000E+00
     -4.55668492819343E-17   1.70000000000000E-01   1.70000000000000E-01   0.00000000000000E+00   0.00000000000000E+00
      6.02446407160762E-12   5.58257566799932E-15   6.03004664727562E-12   1.44193540193935E-17   1.80000000000000E-01
      1.80000000000000E-01   0.00000000000000E+00   0.00000000000000E+00   0.00000000000000E+00   0.00000000000000E+00
      0.00000000000000E+00   4.18646802496761E-17
      6.00000000000000E-02
      0.00000000000000E+00   0.00000000000000E+00   0.00000000000000E+00   0.00000000000000E+00  -1.55000179641592E-13
     -5.28062237239278E-12  -5.43562255203437E-12  -1.07616432238644E-17   2.40000000000000E-02   2.40000000000000E-02
      0.00000000000000E+00   0.00000000000000E+00   0.00000000000000E+00   0.00000000000000E+00   0.00000000000000E+00
     -4.44302130101455E-17   1.70000000000000E-01   1.70000000000000E-01   0.00000000000000E+00   0.00000000000000E+00
      5.43006881450464E-12   5.55373752973172E-15   5.43562255203437E-12   1.43763280949635E-17   1.80000000000000E-01
      1.80000000000000E-01   0.00000000000000E+00   0.00000000000000E+00   0.00000000000000E+00   0.00000000000000E+00
      0.00000000000000E+00   4.08155281390465E-17
      7.00000000000000E-02
      0.00000000000000E+00   0.00000000000000E+00   0.00000000000000E+00   0.00000000000000E+00  -1.56186905449357E-13
     -4.74043308496470E-12  -4.89661999041406E-12  -1.08060662667221E-17   2.80000000000000E-02   2.80000000000000E-02
      0.00000000000000E+00   0.00000000000000E+00   0.00000000000000E+00   0.00000000000000E+00   0.00000000000000E+00
     -4.32935909177675E-17   1.70000000000000E-01   1.70000000000000E-01   0.00000000000000E+00   0.00000000000000E+00
      4.89109506913477E-12   5.52492127928776E-15   4.89661999041406E-12   1.43332953178868E-17   1.80000000000000E-01
      1.80000000000000E-01   0.00000000000000E+00   0.00000000000000E+00   0.00000000000000E+00   0.00000000000000E+00
      0.00000000000000E+00   3.97663618666029E-17
      8.00000000000000E-02
      0.00000000000000E+00   0.00000000000000E+00   0.00000000000000E+00   0.00000000000000E+00  -1.57376854289258E-13
     -4.25107634685978E-12  -4.40845320114904E-12  -1.08504548600564E-17   3.20000000000000E-02   3.20000000000000E-02
      0.00000000000000E+00   0.00000000000000E+00   0.00000000000000E+00   0.00000000000000E+00   0.00000000000000E+00
     -4.21569825622697E-17   1.70000000000000E-01   1.70000000000000E-01   0.00000000000000E+00   0.00000000000000E+00
      4.40295707359900E-12   5.49612755004175E-15   4.40845320114904E-12   1.42902555489814E-17   1.80000000000000E-01
      1.80000000000000E-01   0.00000000000000E+00   0.00000000000000E+00   0.00000000000000E+00   0.00000000000000E+00
      0.00000000000000E+00   3.87171818733447E-17
      9.00000000000000E-02
      0.00000000000000E+00   0.00000000000000E+00   0.00000000000000E+00   0.00000000000000E+00  -1.58569995216471E-13
     -3.80829140177214E-12  -3.96686139698861E-12  -1.08948097309872E-17   3.60000000000000E-02   3.60000000000000E-02
      0.00000000000000E+00   0.00000000000000E+00   0.00000000000000E+00   0.00000000000000E+00   0.00000000000000E+00
     -4.10203875091701E-17   1.70000000000000E-01   1.70000000000000E-01   0.00000000000000E+00   0.00000000000000E+00
      3.96139403997462E-12   5.46735701399692E-15   3.96686139698861E-12   1.42472086478030E-17   1.80000000000000E-01
      1.80000000000000E-01   0.00000000000000E+00   0.00000000000000E+00   0.00000000000000E+00   0.00000000000000E+00
      0.00000000000000E+00   3.76679885923543E-17
      1.00000000000000E-01
      0.00000000000000E+00   0.00000000000000E+00   0.00000000000000E+00   0.00000000000000E+00  -1.59766297274893E-13
     -3.40812403290423E-12  -3.56789033017912E-12  -1.09391315898206E-17   4.00000000000000E-02   4.00000000000000E-02
      0.00000000000000E+00   0.00000000000000E+00   0.00000000000000E+00   0.00000000000000E+00   0.00000000000000E+00
     -3.98838053317456E-17   1.70000000000000E-01   1.70000000000000E-01   0.00000000000000E+00   0.00000000000000E+00
      3.56245171985824E-12   5.43861032088276E-15   3.56789033017912E-12   1.42041544724916E-17   1.80000000000000E-01
      1.80000000000000E-01   0.00000000000000E+00   0.00000000000000E+00   0.00000000000000E+00   0.00000000000000E+00
      0.00000000000000E+00   3.66187824490747E-17
      1.10000000000000E-01
      0.00000000000000E+00   0.00000000000000E+00   0.00000000000000E+00   0.00000000000000E+00  -1.60965729525893E-13
     -3.04690884867710E-12  -3.20787457820300E-12  -1.09834211304525E-17   4.40000000000000E-02   4.40000000000000E-02
      0.00000000000000E+00   0.00000000000000E+00   0.00000000000000E+00   0.00000000000000E+00   0.00000000000000E+00
     -3.87472356107515E-17   1.70000000000000E-01   1.70000000000000E-01   0.00000000000000E+00   0.00000000000000E+00
      3.20246469015211E-12   5.40988805088269E-15   3.20787457820299E-12   1.41610928796237E-17   1.80000000000000E-01
      1.80000000000000E-01   0.00000000000000E+00   0.00000000000000E+00   0.00000000000000E+00   0.00000000000000E+00
      0.00000000000000E+00   3.55695638615804E-17
      1.20000000000000E-01
      0.00000000000000E+00   0.00000000000000E+00   0.00000000000000E+00   0.00000000000000E+00  -1.62168261074022E-13
     -2.72125227992826E-12  -2.88342054100228E-12  -1.10276790307631E-17   4.80000000000000E-02   4.80000000000000E-02
      0.00000000000000E+00   0.00000000000000E+00   0.00000000000000E+00   0.00000000000000E+00   0.00000000000000E+00
     -3.76106779341482E-17   1.70000000000000E-01   1.70000000000000E-01   0.00000000000000E+00   0.00000000000000E+00
      2.87803935021216E-12   5.38119079012170E-15   2.88342054100228E-12   1.41180237240703E-17   1.80000000000000E-01
      1.80000000000000E-01   0.00000000000000E+00   0.00000000000000E+00   0.00000000000000E+00   0.00000000000000E+00
      0.00000000000000E+00   3.45203332408410E-17
      1.30000000000000E-01
      0.00000000000000E+00   0.00000000000000E+00   0.00000000000000E+00   0.00000000000000E+00  -1.63373861090442E-13
     -2.42801627872510E-12  -2.59139013981554E-12  -1.10719059530024E-17   5.20000000000000E-02   5.20000000000000E-02
      0.00000000000000E+00   0.00000000000000E+00   0.00000000000000E+00   0.00000000000000E+00   0.00000000000000E+00
     -3.64741318968359E-17   1.70000000000000E-01   1.70000000000000E-01   0.00000000000000E+00   0.00000000000000E+00
      2.58603762074333E-12   5.35251907220894E-15   2.59139013981554E-12   1.40749468588600E-17   1.80000000000000E-01
      1.80000000000000E-01   0.00000000000000E+00   0.00000000000000E+00   0.00000000000000E+00   0.00000000000000E+00
      0.00000000000000E+00   3.34710909909782E-17
      1.40000000000000E-01
      0.00000000000000E+00   0.00000000000000E+00   0.00000000000000E+00   0.00000000000000E+00  -1.64582498833805E-13
     -2.16430270876783E-12  -2.32888520760163E-12  -1.11161025441663E-17   5.60000000000000E-02   5.60000000000000E-02
      0.00000000000000E+00   0.00000000000000E+00   0.00000000000000E+00   0.00000000000000E+00   0.00000000000000E+00
     -3.53375971003959E-17   1.70000000000000E-01   1.70000000000000E-01   0.00000000000000E+00   0.00000000000000E+00
      2.32356133411207E-12   5.32387348956051E-15   2.32888520760163E-12   1.40318621350456E-17   1.80000000000000E-01
      1.80000000000000E-01   0.00000000000000E+00   0.00000000000000E+00   0.00000000000000E+00   0.00000000000000E+00
      0.00000000000000E+00   3.24218375095166E-17
      1.50000000000000E-01
      0.00000000000000E+00   0.00000000000000E+00   0.00000000000000E+00   0.00000000000000E+00  -1.65794143669060E-13
     -1.92743841595934E-12  -2.09323255962840E-12  -1.11602694363641E-17   6.00000000000000E-02   6.00000000000000E-02
      0.00000000000000E+00   0.00000000000000E+00   0.00000000000000E+00   0.00000000000000E+00   0.00000000000000E+00
     -3.42010731528394E-17   1.70000000000000E-01   1.70000000000000E-01   0.00000000000000E+00   0.00000000000000E+00
      2.08793730505917E-12   5.29525456922957E-15   2.09323255962840E-12   1.39887694015756E-17   1.80000000000000E-01
      1.80000000000000E-01   0.00000000000000E+00   0.00000000000000E+00   0.00000000000000E+00   0.00000000000000E+00
      0.00000000000000E+00   3.13725731876278E-17
      1.60000000000000E-01
      0.00000000000000E+00   0.00000000000000E+00   0.00000000000000E+00   0.00000000000000E+00  -1.67008765084690E-13
     -1.71496096789866E-12  -1.88196973298335E-12  -1.12044072471764E-17   6.40000000000000E-02   6.40000000000000E-02
      0.00000000000000E+00   0.00000000000000E+00   0.00000000000000E+00   0.00000000000000E+00   0.00000000000000E+00
     -3.30645596683615E-17   1.70000000000000E-01   1.70000000000000E-01   0.00000000000000E+00   0.00000000000000E+00
      1.87670307013575E-12   5.26666284760292E-15   1.88196973298336E-12   1.39456685051682E-17   1.80000000000000E-01
      1.80000000000000E-01   0.00000000000000E+00   0.00000000000000E+00   0.00000000000000E+00   0.00000000000000E+00
      0.00000000000000E+00   3.03232984103697E-17
      1.70000000000000E-01
      0.00000000000000E+00   0.00000000000000E+00   0.00000000000000E+00   0.00000000000000E+00  -1.68226332707641E-13
     -1.52460504967052E-12  -1.69283138237816E-12  -1.12485165800057E-17   6.80000000000000E-02   6.80000000000000E-02
      0.00000000000000E+00   0.00000000000000E+00   0.00000000000000E+00   0.00000000000000E+00   0.00000000000000E+00
     -3.19280562671024E-17   1.70000000000000E-01   1.70000000000000E-01   0.00000000000000E+00   0.00000000000000E+00
      1.68759328355710E-12   5.23809882105599E-15   1.69283138237815E-12   1.39025592901888E-17   1.80000000000000E-01
      1.80000000000000E-01   0.00000000000000E+00   0.00000000000000E+00   0.00000000000000E+00   0.00000000000000E+00
      0.00000000000000E+00   2.92740135569192E-17
      1.80000000000000E-01
      0.00000000000000E+00   0.00000000000000E+00   0.00000000000000E+00   0.00000000000000E+00  -1.69446816317359E-13
     -1.35428950329359E-12  -1.52373631961095E-12  -1.12925980244177E-17   7.20000000000000E-02   7.20000000000000E-02
      0.00000000000000E+00   0.00000000000000E+00   0.00000000000000E+00   0.00000000000000E+00   0.00000000000000E+00
     -3.07915625749132E-17   1.70000000000000E-01   1.70000000000000E-01   0.00000000000000E+00   0.00000000000000E+00
      1.51852675658088E-12   5.20956303007346E-15   1.52373631961095E-12   1.38594415985296E-17   1.80000000000000E-01
      1.80000000000000E-01   0.00000000000000E+00   0.00000000000000E+00   0.00000000000000E+00   0.00000000000000E+00
      0.00000000000000E+00   2.82247190008012E-17
      1.90000000000000E-01
      0.00000000000000E+00   0.00000000000000E+00   0.00000000000000E+00   0.00000000000000E+00  -1.70670185857911E-13
     -1.20210499707838E-12  -1.37277518293630E-12  -1.13366521564751E-17   7.60000000000000E-02   7.60000000000000E-02
      0.00000000000000E+00   0.00000000000000E+00   0.00000000000000E+00   0.00000000000000E+00   0.00000000000000E+00
     -2.96550782231280E-17   1.70000000000000E-01   1.70000000000000E-01   0.00000000000000E+00   0.00000000000000E+00
      1.36759412696228E-12   5.18105597401975E-15   1.37277518293630E-12   1.38163152694918E-17   1.80000000000000E-01
      1.80000000000000E-01   0.00000000000000E+00   0.00000000000000E+00   0.00000000000000E+00   0.00000000000000E+00
      0.00000000000000E+00   2.71754151101113E-17
      2.00000000000000E-01
      0.00000000000000E+00   0.00000000000000E+00   0.00000000000000E+00   0.00000000000000E+00  -1.71896411449042E-13
     -1.06630231122063E-12  -1.23819872266967E-12  -1.13806795390625E-17   8.00000000000000E-02   8.00000000000000E-02
      0.00000000000000E+00   0.00000000000000E+00   0.00000000000000E+00   0.00000000000000E+00   0.00000000000000E+00
     -2.85186028483407E-17   1.70000000000000E-01   1.70000000000000E-01   0.00000000000000E+00   0.00000000000000E+00
      1.23304614453365E-12   5.15257813602148E-15   1.23819872266967E-12   1.37731801396690E-17   1.80000000000000E-01
      1.80000000000000E-01   0.00000000000000E+00   0.00000000000000E+00   0.00000000000000E+00   0.00000000000000E+00
      0.00000000000000E+00   2.61261022477342E-17
      2.10000000000000E-01
      0.00000000000000E+00   0.00000000000000E+00   0.00000000000000E+00   0.00000000000000E+00  -1.73125463396165E-13
     -9.45281225144095E-13  -1.11840668854026E-12  -1.14246807222046E-17   8.40000000000000E-02   8.40000000000000E-02
      0.00000000000000E+00   0.00000000000000E+00   0.00000000000000E+00   0.00000000000000E+00   0.00000000000000E+00
     -2.73821360921865E-17   1.70000000000000E-01   1.70000000000000E-01   0.00000000000000E+00   0.00000000000000E+00
      1.11328255849490E-12   5.12413004536227E-15   1.11840668854026E-12   1.37300360428327E-17   1.80000000000000E-01
      1.80000000000000E-01   0.00000000000000E+00   0.00000000000000E+00   0.00000000000000E+00   0.00000000000000E+00
      0.00000000000000E+00   2.50767807715585E-17
      2.20000000000000E-01
      0.00000000000000E+00   0.00000000000000E+00   0.00000000000000E+00   0.00000000000000E+00  -1.74357312199015E-13
     -8.37579991554089E-13  -1.01193730375310E-12  -1.14686562433760E-17   8.80000000000000E-02   8.80000000000000E-02
      0.00000000000000E+00   0.00000000000000E+00   0.00000000000000E+00   0.00000000000000E+00   0.00000000000000E+00
     -2.62456776011282E-17   1.70000000000000E-01   1.70000000000000E-01   0.00000000000000E+00   0.00000000000000E+00
      1.00684159158964E-12   5.09571216346403E-15   1.01193730375310E-12   1.36868828098184E-17   1.80000000000000E-01
      1.80000000000000E-01   0.00000000000000E+00   0.00000000000000E+00   0.00000000000000E+00   0.00000000000000E+00
      0.00000000000000E+00   2.40274510346858E-17
      2.30000000000000E-01
      0.00000000000000E+00   0.00000000000000E+00   0.00000000000000E+00   0.00000000000000E+00  -1.75591928559689E-13
     -7.41865382404988E-13  -9.17457310964678E-13  -1.15126066278033E-17   9.20000000000000E-02   9.20000000000000E-02
      0.00000000000000E+00   0.00000000000000E+00   0.00000000000000E+00   0.00000000000000E+00   0.00000000000000E+00
     -2.51092270262466E-17   1.70000000000000E-01   1.70000000000000E-01   0.00000000000000E+00   0.00000000000000E+00
      9.12389985986644E-13   5.06732497803287E-15   9.17457310964677E-13   1.36437202684129E-17   1.80000000000000E-01
      1.80000000000000E-01   0.00000000000000E+00   0.00000000000000E+00   0.00000000000000E+00   0.00000000000000E+00
      0.00000000000000E+00   2.29781133856370E-17
      2.40000000000000E-01
      0.00000000000000E+00   0.00000000000000E+00   0.00000000000000E+00   0.00000000000000E+00  -1.76829283389518E-13
     -6.56923290999089E-13  -8.33752574388607E-13  -1.15565323887610E-17   9.60000000000000E-02   9.60000000000000E-02
      0.00000000000000E+00   0.00000000000000E+00   0.00000000000000E+00   0.00000000000000E+00   0.00000000000000E+00
     -2.39727840230356E-17   1.70000000000000E-01   1.70000000000000E-01   0.00000000000000E+00   0.00000000000000E+00
      8.28713605383036E-13   5.03896900557167E-15   8.33752574388607E-13   1.36005482432421E-17   1.80000000000000E-01
      1.80000000000000E-01   0.00000000000000E+00   0.00000000000000E+00   0.00000000000000E+00   0.00000000000000E+00
      0.00000000000000E+00   2.19287681685545E-17
      2.50000000000000E-01
      0.00000000000000E+00   0.00000000000000E+00   0.00000000000000E+00   0.00000000000000E+00  -1.78069347815364E-13
     -5.81649874482081E-13  -7.59719222297445E-13  -1.16004340278590E-17   1.00000000000000E-01   1.00000000000000E-01
      0.00000000000000E+00   0.00000000000000E+00   0.00000000000000E+00   0.00000000000000E+00   0.00000000000000E+00
     -2.28363482512003E-17   1.70000000000000E-01   1.70000000000000E-01   0.00000000000000E+00   0.00000000000000E+00
      7.54708577604314E-13   5.01064469313095E-15   7.59719222297445E-13   1.35573665556590E-17   1.80000000000000E-01
      1.80000000000000E-01   0.00000000000000E+00   0.00000000000000E+00   0.00000000000000E+00   0.00000000000000E+00
      0.00000000000000E+00   2.08794157234003E-17
      2.60000000000000E-01
      0.00000000000000E+00   0.00000000000000E+00   0.00000000000000E+00   0.00000000000000E+00  -1.79312093185151E-13
     -5.15043221171226E-13  -6.94355314356377E-13  -1.16443120353238E-17   1.04000000000000E-01   1.04000000000000E-01
      0.00000000000000E+00   0.00000000000000E+00   0.00000000000000E+00   0.00000000000000E+00   0.00000000000000E+00
     -2.16999193744594E-17   1.70000000000000E-01   1.70000000000000E-01   0.00000000000000E+00   0.00000000000000E+00
      6.89372961793928E-13   4.98235256244991E-15   6.94355314356378E-13   1.35141750236319E-17   1.80000000000000E-01
      1.80000000000000E-01   0.00000000000000E+00   0.00000000000000E+00   0.00000000000000E+00   0.00000000000000E+00
      0.00000000000000E+00   1.98300563861514E-17
      2.70000000000000E-01
      0.00000000000000E+00   0.00000000000000E+00   0.00000000000000E+00   0.00000000000000E+00  -1.80557491072617E-13
     -4.56195526155199E-13  -6.36753017227816E-13  -1.16881668902728E-17   1.08000000000000E-01   1.08000000000000E-01
      0.00000000000000E+00   0.00000000000000E+00   0.00000000000000E+00   0.00000000000000E+00   0.00000000000000E+00
     -2.05634970603508E-17   1.70000000000000E-01   1.70000000000000E-01   0.00000000000000E+00   0.00000000000000E+00
      6.31798924166280E-13   4.95409306153593E-15   6.36753017227816E-13   1.34709734616323E-17   1.80000000000000E-01
      1.80000000000000E-01   0.00000000000000E+00   0.00000000000000E+00   0.00000000000000E+00   0.00000000000000E+00
      0.00000000000000E+00   1.87806904889913E-17
      2.80000000000000E-01
      0.00000000000000E+00   0.00000000000000E+00   0.00000000000000E+00   0.00000000000000E+00  -1.81805513281738E-13
     -4.04285759661651E-13  -5.86091272943389E-13  -1.17319990609815E-17   1.12000000000000E-01   1.12000000000000E-01
      0.00000000000000E+00   0.00000000000000E+00   0.00000000000000E+00   0.00000000000000E+00   0.00000000000000E+00
     -1.94270809800405E-17   1.70000000000000E-01   1.70000000000000E-01   0.00000000000000E+00   0.00000000000000E+00
      5.81165406243568E-13   4.92586669982121E-15   5.86091272943389E-13   1.34277616805230E-17   1.80000000000000E-01
      1.80000000000000E-01   0.00000000000000E+00   0.00000000000000E+00   0.00000000000000E+00   0.00000000000000E+00
      0.00000000000000E+00   1.77313183604991E-17
      2.90000000000000E-01
      0.00000000000000E+00   0.00000000000000E+00   0.00000000000000E+00   0.00000000000000E+00  -1.83056131850261E-13
     -3.58572811608557E-13  -5.41628943458818E-13  -1.17758090051451E-17   1.16000000000000E-01   1.16000000000000E-01
      0.00000000000000E+00   0.00000000000000E+00   0.00000000000000E+00   0.00000000000000E+00   0.00000000000000E+00
     -1.82906708081346E-17   1.70000000000000E-01   1.70000000000000E-01   0.00000000000000E+00   0.00000000000000E+00
      5.36731269507464E-13   4.89767395135418E-15   5.41628943458818E-13   1.33845394874445E-17   1.80000000000000E-01
      1.80000000000000E-01   0.00000000000000E+00   0.00000000000000E+00   0.00000000000000E+00   0.00000000000000E+00
      0.00000000000000E+00   1.66819403258352E-17
      3.00000000000000E-01
      0.00000000000000E+00   0.00000000000000E+00   0.00000000000000E+00   0.00000000000000E+00  -1.84309319053072E-13
     -3.18389096727867E-13  -5.02698415780940E-13  -1.18195971701325E-17   1.20000000000000E-01   1.20000000000000E-01
      0.00000000000000E+00   0.00000000000000E+00   0.00000000000000E+00   0.00000000000000E+00   0.00000000000000E+00
     -1.71542662224942E-17   1.70000000000000E-01   1.70000000000000E-01   0.00000000000000E+00   0.00000000000000E+00
      4.97828900476911E-13   4.86951530402939E-15   5.02698415780940E-13   1.33413066857020E-17   1.80000000000000E-01
      1.80000000000000E-01   0.00000000000000E+00   0.00000000000000E+00   0.00000000000000E+00   0.00000000000000E+00
      0.00000000000000E+00   1.56325567069247E-17
      3.10000000000000E-01
      0.00000000000000E+00   0.00000000000000E+00   0.00000000000000E+00   0.00000000000000E+00  -1.85565047404955E-13
     -2.83134604193776E-13  -4.68699651598731E-13  -1.18633639932352E-17   1.24000000000000E-01   1.24000000000000E-01
      0.00000000000000E+00   0.00000000000000E+00   0.00000000000000E+00   0.00000000000000E+00   0.00000000000000E+00
     -1.60178669040527E-17   1.70000000000000E-01   1.70000000000000E-01   0.00000000000000E+00   0.00000000000000E+00
      4.63858260368189E-13   4.84139123054195E-15   4.68699651598731E-13   1.32980630746502E-17   1.80000000000000E-01
      1.80000000000000E-01   0.00000000000000E+00   0.00000000000000E+00   0.00000000000000E+00   0.00000000000000E+00
      0.00000000000000E+00   1.45831678226377E-17
      3.20000000000000E-01
      0.00000000000000E+00   0.00000000000000E+00   0.00000000000000E+00   0.00000000000000E+00  -1.86823289662971E-13
     -2.52271376266263E-13  -4.39094665929234E-13  -1.19071099019092E-17   1.28000000000000E-01   1.28000000000000E-01
      0.00000000000000E+00   0.00000000000000E+00   0.00000000000000E+00   0.00000000000000E+00   0.00000000000000E+00
     -1.48814725366365E-17   1.70000000000000E-01   1.70000000000000E-01   0.00000000000000E+00   0.00000000000000E+00
      4.34281363708158E-13   4.81330222107573E-15   4.39094665929234E-13   1.32548084495778E-17   1.80000000000000E-01
      1.80000000000000E-01   0.00000000000000E+00   0.00000000000000E+00   0.00000000000000E+00   0.00000000000000E+00
      0.00000000000000E+00   1.35337739889678E-17
      3.30000000000000E-01
      0.00000000000000E+00   0.00000000000000E+00   0.00000000000000E+00   0.00000000000000E+00  -1.88084018828593E-13
     -2.25318400508554E-13  -4.13402419337147E-13  -1.19508353140118E-17   1.32000000000000E-01   1.32000000000000E-01
      0.00000000000000E+00   0.00000000000000E+00   0.00000000000000E+00   0.00000000000000E+00   0.00000000000000E+00
     -1.37450828067868E-17   1.70000000000000E-01   1.70000000000000E-01   0.00000000000000E+00   0.00000000000000E+00
      4.08617170552549E-13   4.78524878459795E-15   4.13402419337147E-13   1.32115426015904E-17   1.80000000000000E-01
      1.80000000000000E-01   0.00000000000000E+00   0.00000000000000E+00   0.00000000000000E+00   0.00000000000000E+00
      0.00000000000000E+00   1.24843755192081E-17
      3.40000000000000E-01
      0.00000000000000E+00   0.00000000000000E+00   0.00000000000000E+00   0.00000000000000E+00  -1.89347208148945E-13
     -2.01846900545698E-13  -3.91194108694643E-13  -1.19945406380319E-17   1.36000000000000E-01   1.36000000000000E-01
      0.00000000000000E+00   0.00000000000000E+00   0.00000000000000E+00   0.00000000000000E+00   0.00000000000000E+00
     -1.26086974035848E-17   1.70000000000000E-01   1.70000000000000E-01   0.00000000000000E+00   0.00000000000000E+00
      3.86436877308417E-13   4.75723138622581E-15   3.91194108694643E-13   1.31682653174918E-17   1.80000000000000E-01
      1.80000000000000E-01   0.00000000000000E+00   0.00000000000000E+00   0.00000000000000E+00   0.00000000000000E+00
      0.00000000000000E+00   1.14349727241249E-17
      3.50000000000000E-01
      0.00000000000000E+00   0.00000000000000E+00   0.00000000000000E+00   0.00000000000000E+00  -1.90612831118811E-13
     -1.81476010974264E-13  -3.72088842093075E-13  -1.20382262733152E-17   1.40000000000000E-01   1.40000000000000E-01
      0.00000000000000E+00   0.00000000000000E+00   0.00000000000000E+00   0.00000000000000E+00   0.00000000000000E+00
     -1.14723160184782E-17   1.70000000000000E-01   1.70000000000000E-01   0.00000000000000E+00   0.00000000000000E+00
      3.67359591575295E-13   4.72925051778000E-15   3.72088842093075E-13   1.31249763796636E-17   1.80000000000000E-01
      1.80000000000000E-01   0.00000000000000E+00   0.00000000000000E+00   0.00000000000000E+00   0.00000000000000E+00
      0.00000000000000E+00   1.03855659121298E-17
      3.60000000000000E-01
      0.00000000000000E+00   0.00000000000000E+00   0.00000000000000E+00   0.00000000000000E+00  -1.91880861481190E-13
     -1.63868822097532E-13  -3.55749683578722E-13  -1.20818926102831E-17   1.44000000000000E-01   1.44000000000000E-01
      0.00000000000000E+00   0.00000000000000E+00   0.00000000000000E+00   0.00000000000000E+00   0.00000000000000E+00
     -1.03359383451102E-17   1.70000000000000E-01   1.70000000000000E-01   0.00000000000000E+00   0.00000000000000E+00
      3.51048376892859E-13   4.70130668586300E-15   3.55749683578722E-13   1.30816755659437E-17   1.80000000000000E-01
      1.80000000000000E-01   0.00000000000000E+00   0.00000000000000E+00   0.00000000000000E+00   0.00000000000000E+00
      0.00000000000000E+00   9.33615538944956E-18
      3.70000000000000E-01
      0.00000000000000E+00   0.00000000000000E+00   0.00000000000000E+00   0.00000000000000E+00  -1.93151273228413E-13