DF-ISE text

Info {
  version   = 1.0
  type      = xyplot
  datasets  = [
    "time"
    "source OuterVoltage" "source InnerVoltage" "source QuasiFermiPotential" "source DisplacementCurrent" "source eCurrent"
    "source hCurrent" "source TotalCurrent" "source Charge" "topGate OuterVoltage" "topGate InnerVoltage"
    "topGate QuasiFermiPotential" "topGate DisplacementCurrent" "topGate eCurrent" "topGate hCurrent" "topGate TotalCurrent"
    "topGate Charge" "drain OuterVoltage" "drain InnerVoltage" "drain QuasiFermiPotential" "drain DisplacementCurrent"
    "drain eCurrent" "drain hCurrent" "drain TotalCurrent" "drain Charge" "bottomGate OuterVoltage"
    "bottomGate InnerVoltage" "bottomGate QuasiFermiPotential" "bottomGate DisplacementCurrent" "bottomGate eCurrent" "bottomGate hCurrent"
    "bottomGate TotalCurrent" "bottomGate Charge" ]
  functions = [
    Time
    OuterVoltage InnerVoltage QuasiFermiPotential DisplacementCurrent eCurrent
    hCurrent TotalCurrent Charge OuterVoltage InnerVoltage
    QuasiFermiPotential DisplacementCurrent eCurrent hCurrent TotalCurrent
    Charge OuterVoltage InnerVoltage QuasiFermiPotential DisplacementCurrent
    eCurrent hCurrent TotalCurrent Charge OuterVoltage
    InnerVoltage QuasiFermiPotential DisplacementCurrent eCurrent hCurrent
    TotalCurrent Charge ]
}

Data {
      1.00000000000000E-02
      0.00000000000000E+00   0.00000000000000E+00   0.00000000000000E+00   0.00000000000000E+00  -9.07661780324879E-14
     -1.91068727657778E-13  -2.81834905690266E-13  -9.86459316217289E-18   4.00000000000000E-03   4.00000000000000E-03
      0.00000000000000E+00   0.00000000000000E+00   0.00000000000000E+00   0.00000000000000E+00   0.00000000000000E+00
     -3.28680662097566E-17   3.00000000000000E-02   3.00000000000000E-02   0.00000000000000E+00   0.00000000000000E+00
      2.78981329009044E-13   2.85357668122189E-15   2.81834905690266E-13   1.22128621989783E-17   1.20000000000000E-01
      1.20000000000000E-01   0.00000000000000E+00   0.00000000000000E+00   0.00000000000000E+00   0.00000000000000E+00
      0.00000000000000E+00   3.05197971729512E-17
      2.00000000000000E-02
      0.00000000000000E+00   0.00000000000000E+00   0.00000000000000E+00   0.00000000000000E+00  -9.15325708730532E-14
     -1.64031001828365E-13  -2.55563572701418E-13  -9.90988775481536E-18   8.00000000000000E-03   8.00000000000000E-03
      0.00000000000000E+00   0.00000000000000E+00   0.00000000000000E+00   0.00000000000000E+00   0.00000000000000E+00
     -3.17307134961704E-17   3.00000000000000E-02   3.00000000000000E-02   0.00000000000000E+00   0.00000000000000E+00
      2.52728527586408E-13   2.83504511500961E-15   2.55563572701418E-13   1.21692401492686E-17   1.20000000000000E-01
      1.20000000000000E-01   0.00000000000000E+00   0.00000000000000E+00   0.00000000000000E+00   0.00000000000000E+00
      0.00000000000000E+00   2.94713611017171E-17
      3.00000000000000E-02
      0.00000000000000E+00   0.00000000000000E+00   0.00000000000000E+00   0.00000000000000E+00  -9.23016658976077E-14
     -1.40634250611826E-13  -2.32935916509434E-13  -9.95512911525682E-18   1.20000000000000E-02   1.20000000000000E-02
      0.00000000000000E+00   0.00000000000000E+00   0.00000000000000E+00   0.00000000000000E+00   0.00000000000000E+00
     -3.05933787389701E-17   3.00000000000000E-02   3.00000000000000E-02   0.00000000000000E+00   0.00000000000000E+00
      2.30119373481648E-13   2.81654302778545E-15   2.32935916509434E-13   1.21256007235350E-17   1.20000000000000E-01
      1.20000000000000E-01   0.00000000000000E+00   0.00000000000000E+00   0.00000000000000E+00   0.00000000000000E+00
      0.00000000000000E+00   2.84229071306919E-17
      4.00000000000000E-02
      0.00000000000000E+00   0.00000000000000E+00   0.00000000000000E+00   0.00000000000000E+00  -9.30734390725440E-14
     -1.20429686329129E-13  -2.13503125401673E-13  -1.00003184077140E-17   1.60000000000000E-02   1.60000000000000E-02
      0.00000000000000E+00   0.00000000000000E+00   0.00000000000000E+00   0.00000000000000E+00   0.00000000000000E+00
     -2.94560611396136E-17   3.00000000000000E-02   3.00000000000000E-02   0.00000000000000E+00   0.00000000000000E+00
      2.10705053892948E-13   2.79807150872534E-15   2.13503125401674E-13   1.20819434940059E-17   1.20000000000000E-01
      1.20000000000000E-01   0.00000000000000E+00   0.00000000000000E+00   0.00000000000000E+00   0.00000000000000E+00
      0.00000000000000E+00   2.73744360533218E-17
      5.00000000000000E-02
      0.00000000000000E+00   0.00000000000000E+00   0.00000000000000E+00   0.00000000000000E+00  -9.38478663224195E-14
     -1.03017942062003E-13  -1.96865808384423E-13  -1.00454567692280E-17   2.00000000000000E-02   2.00000000000000E-02
      0.00000000000000E+00   0.00000000000000E+00   0.00000000000000E+00   0.00000000000000E+00   0.00000000000000E+00
     -2.83187599115085E-17   3.00000000000000E-02   3.00000000000000E-02   0.00000000000000E+00   0.00000000000000E+00
      1.94086177470202E-13   2.77963091422078E-15   1.96865808384423E-13   1.20382680291939E-17   1.20000000000000E-01
      1.20000000000000E-01   0.00000000000000E+00   0.00000000000000E+00   0.00000000000000E+00   0.00000000000000E+00
      0.00000000000000E+00   2.63259486515426E-17
      6.00000000000000E-02
      0.00000000000000E+00   0.00000000000000E+00   0.00000000000000E+00   0.00000000000000E+00  -9.46249235484683E-14
     -8.80443923584080E-14  -1.82669315906876E-13  -1.00905453102998E-17   2.40000000000000E-02   2.40000000000000E-02
      0.00000000000000E+00   0.00000000000000E+00   0.00000000000000E+00   0.00000000000000E+00   0.00000000000000E+00
     -2.71814742793884E-17   3.00000000000000E-02   3.00000000000000E-02   0.00000000000000E+00   0.00000000000000E+00
      1.79908094275403E-13   2.76122163147292E-15   1.82669315906876E-13   1.19945738933238E-17   1.20000000000000E-01
      1.20000000000000E-01   0.00000000000000E+00   0.00000000000000E+00   0.00000000000000E+00   0.00000000000000E+00
      0.00000000000000E+00   2.52774456963644E-17
      7.00000000000000E-02
      0.00000000000000E+00   0.00000000000000E+00   0.00000000000000E+00   0.00000000000000E+00  -9.54045866476209E-14
     -7.51948313944496E-14  -1.70599418042070E-13  -1.01355851155120E-17   2.80000000000000E-02   2.80000000000000E-02
      0.00000000000000E+00   0.00000000000000E+00   0.00000000000000E+00   0.00000000000000E+00   0.00000000000000E+00
     -2.60442034787101E-17   3.00000000000000E-02   3.00000000000000E-02   0.00000000000000E+00   0.00000000000000E+00
      1.67856573681031E-13   2.74284436103923E-15   1.70599418042070E-13   1.19508606457825E-17   1.20000000000000E-01
      1.20000000000000E-01   0.00000000000000E+00   0.00000000000000E+00   0.00000000000000E+00   0.00000000000000E+00
      0.00000000000000E+00   2.42289279484395E-17
      8.00000000000000E-02
      0.00000000000000E+00   0.00000000000000E+00   0.00000000000000E+00   0.00000000000000E+00  -9.61868315210927E-14
     -6.41914893474441E-14  -1.60378320868537E-13  -1.01805772441374E-17   3.20000000000000E-02   3.20000000000000E-02
      0.00000000000000E+00   0.00000000000000E+00   0.00000000000000E+00   0.00000000000000E+00   0.00000000000000E+00
     -2.49069467550673E-17   3.00000000000000E-02   3.00000000000000E-02   0.00000000000000E+00   0.00000000000000E+00
      1.57653821559683E-13   2.72449930885421E-15   1.60378320868537E-13   1.19071278405888E-17   1.20000000000000E-01
      1.20000000000000E-01   0.00000000000000E+00   0.00000000000000E+00   0.00000000000000E+00   0.00000000000000E+00
      0.00000000000000E+00   2.31803961586159E-17
      9.00000000000000E-02
      0.00000000000000E+00   0.00000000000000E+00   0.00000000000000E+00   0.00000000000000E+00  -9.69716341002436E-14
     -5.47893718173392E-14  -1.51761005917583E-13  -1.02255227307345E-17   3.60000000000000E-02   3.60000000000000E-02
      0.00000000000000E+00   0.00000000000000E+00   0.00000000000000E+00   0.00000000000000E+00   0.00000000000000E+00
     -2.37697033636228E-17   3.00000000000000E-02   3.00000000000000E-02   0.00000000000000E+00   0.00000000000000E+00
      1.49054818451985E-13   2.70618746559763E-15   1.51761005917583E-13   1.18633750258814E-17   1.20000000000000E-01
      1.20000000000000E-01   0.00000000000000E+00   0.00000000000000E+00   0.00000000000000E+00   0.00000000000000E+00
      0.00000000000000E+00   2.21318510684758E-17
      1.00000000000000E-01
      0.00000000000000E+00   0.00000000000000E+00   0.00000000000000E+00   0.00000000000000E+00  -9.77589703419375E-14
     -4.67728994769292E-14  -1.44531869818867E-13  -1.02704225857297E-17   4.00000000000000E-02   4.00000000000000E-02
      0.00000000000000E+00   0.00000000000000E+00   0.00000000000000E+00   0.00000000000000E+00   0.00000000000000E+00
     -2.26324725685545E-17   3.00000000000000E-02   3.00000000000000E-02   0.00000000000000E+00   0.00000000000000E+00
      1.41843960672729E-13   2.68790914613727E-15   1.44531869818867E-13   1.18196017434225E-17   1.20000000000000E-01
      1.20000000000000E-01   0.00000000000000E+00   0.00000000000000E+00   0.00000000000000E+00   0.00000000000000E+00
      0.00000000000000E+00   2.10832934108617E-17
      1.10000000000000E-01
      0.00000000000000E+00   0.00000000000000E+00   0.00000000000000E+00   0.00000000000000E+00  -9.85488162521807E-14
     -3.99528354679767E-14  -1.38501651720157E-13  -1.03152777959874E-17   4.40000000000000E-02   4.40000000000000E-02
      0.00000000000000E+00   0.00000000000000E+00   0.00000000000000E+00   0.00000000000000E+00   0.00000000000000E+00
     -2.14952536425173E-17   3.00000000000000E-02   3.00000000000000E-02   0.00000000000000E+00   0.00000000000000E+00
      1.35831986821583E-13   2.66966489857479E-15   1.38501651720157E-13   1.17758075281147E-17   1.20000000000000E-01
      1.20000000000000E-01   0.00000000000000E+00   0.00000000000000E+00   0.00000000000000E+00   0.00000000000000E+00
      0.00000000000000E+00   2.00347239103899E-17
      1.20000000000000E-01
      0.00000000000000E+00   0.00000000000000E+00   0.00000000000000E+00   0.00000000000000E+00  -9.93411478916963E-14
     -3.41634798440397E-14  -1.33504627735736E-13  -1.03600893253667E-17   4.80000000000000E-02   4.80000000000000E-02
      0.00000000000000E+00   0.00000000000000E+00   0.00000000000000E+00   0.00000000000000E+00   0.00000000000000E+00
     -2.03580458661174E-17   3.00000000000000E-02   3.00000000000000E-02   0.00000000000000E+00   0.00000000000000E+00
      1.30853172509143E-13   2.65145522659310E-15   1.33504627735736E-13   1.17319919075308E-17   1.20000000000000E-01
      1.20000000000000E-01   0.00000000000000E+00   0.00000000000000E+00   0.00000000000000E+00   0.00000000000000E+00
      0.00000000000000E+00   1.89861432839533E-17
      1.30000000000000E-01
      0.00000000000000E+00   0.00000000000000E+00   0.00000000000000E+00   0.00000000000000E+00  -1.00135941391697E-13
     -2.92601161864293E-14  -1.29396057578126E-13  -1.04048581152669E-17   5.20000000000000E-02   5.20000000000000E-02
      0.00000000000000E+00   0.00000000000000E+00   0.00000000000000E+00   0.00000000000000E+00   0.00000000000000E+00
     -1.92208485273987E-17   3.00000000000000E-02   3.00000000000000E-02   0.00000000000000E+00   0.00000000000000E+00
      1.26762776680662E-13   2.63328089746434E-15   1.29396057578126E-13   1.16881544014526E-17   1.20000000000000E-01
      1.20000000000000E-01   0.00000000000000E+00   0.00000000000000E+00   0.00000000000000E+00   0.00000000000000E+00
      0.00000000000000E+00   1.79375522412130E-17
      1.40000000000000E-01
      0.00000000000000E+00   0.00000000000000E+00   0.00000000000000E+00   0.00000000000000E+00  -1.00933172953894E-13
     -2.51166927862965E-14  -1.26049865740190E-13  -1.04495850851596E-17   5.60000000000000E-02   5.60000000000000E-02
      0.00000000000000E+00   0.00000000000000E+00   0.00000000000000E+00   0.00000000000000E+00   0.00000000000000E+00
     -1.80836609213413E-17   3.00000000000000E-02   3.00000000000000E-02   0.00000000000000E+00   0.00000000000000E+00
      1.23434723407640E-13   2.61514233255036E-15   1.26049865740190E-13   1.16442945214198E-17   1.20000000000000E-01
      1.20000000000000E-01   0.00000000000000E+00   0.00000000000000E+00   0.00000000000000E+00   0.00000000000000E+00
      0.00000000000000E+00   1.68889514850811E-17
      1.50000000000000E-01
      0.00000000000000E+00   0.00000000000000E+00   0.00000000000000E+00   0.00000000000000E+00  -1.01732818864268E-13
     -2.16237248555979E-14  -1.23356543719866E-13  -1.04942711331101E-17   6.00000000000000E-02   6.00000000000000E-02
      0.00000000000000E+00   0.00000000000000E+00   0.00000000000000E+00   0.00000000000000E+00   0.00000000000000E+00
     -1.69464823493692E-17   3.00000000000000E-02   3.00000000000000E-02   0.00000000000000E+00   0.00000000000000E+00
      1.20759503657660E-13   2.59704006220592E-15   1.23356543719866E-13   1.16004117702849E-17   1.20000000000000E-01
      1.20000000000000E-01   0.00000000000000E+00   0.00000000000000E+00   0.00000000000000E+00   0.00000000000000E+00
      0.00000000000000E+00   1.58403417121944E-17
      1.60000000000000E-01
      0.00000000000000E+00   0.00000000000000E+00   0.00000000000000E+00   0.00000000000000E+00  -1.02534855498823E-13
     -1.86864013382545E-14  -1.21221256837078E-13  -1.05389171362863E-17   6.40000000000000E-02   6.40000000000000E-02
      0.00000000000000E+00   0.00000000000000E+00   0.00000000000000E+00   0.00000000000000E+00   0.00000000000000E+00
     -1.58093121188685E-17   3.00000000000000E-02   3.00000000000000E-02   0.00000000000000E+00   0.00000000000000E+00
      1.18642282126079E-13   2.57897471099899E-15   1.21221256837078E-13   1.15565056417748E-17   1.20000000000000E-01
      1.20000000000000E-01   0.00000000000000E+00   0.00000000000000E+00   0.00000000000000E+00   0.00000000000000E+00
      0.00000000000000E+00   1.47917236133800E-17
      1.70000000000000E-01
      0.00000000000000E+00   0.00000000000000E+00   0.00000000000000E+00   0.00000000000000E+00  -1.03339259336057E-13
     -1.62228824152469E-14  -1.19562141751304E-13  -1.05835239514564E-17   6.80000000000000E-02   6.80000000000000E-02
      0.00000000000000E+00   0.00000000000000E+00   0.00000000000000E+00   0.00000000000000E+00   0.00000000000000E+00
     -1.46721495427135E-17   3.00000000000000E-02   3.00000000000000E-02   0.00000000000000E+00   0.00000000000000E+00
      1.17001194911298E-13   2.56094684000617E-15   1.19562141751304E-13   1.15125756200569E-17   1.20000000000000E-01
      1.20000000000000E-01   0.00000000000000E+00   0.00000000000000E+00   0.00000000000000E+00   0.00000000000000E+00
      0.00000000000000E+00   1.37430978741130E-17
      1.80000000000000E-01
      0.00000000000000E+00   0.00000000000000E+00   0.00000000000000E+00   0.00000000000000E+00  -1.04146006953919E-13
     -1.41627745217162E-14  -1.18308781475635E-13  -1.06280924154752E-17   7.20000000000000E-02   7.20000000000000E-02
      0.00000000000000E+00   0.00000000000000E+00   0.00000000000000E+00   0.00000000000000E+00   0.00000000000000E+00
     -1.35349939388010E-17   3.00000000000000E-02   3.00000000000000E-02   0.00000000000000E+00   0.00000000000000E+00
      1.15765824474006E-13   2.54295700162919E-15   1.18308781475635E-13   1.14686211793073E-17   1.20000000000000E-01
      1.20000000000000E-01   0.00000000000000E+00   0.00000000000000E+00   0.00000000000000E+00   0.00000000000000E+00
      0.00000000000000E+00   1.26944651749689E-17
      1.90000000000000E-01
      0.00000000000000E+00   0.00000000000000E+00   0.00000000000000E+00   0.00000000000000E+00  -1.04955075047290E-13
     -1.24457698796556E-14  -1.17400844926946E-13  -1.06726233457596E-17   7.60000000000000E-02   7.60000000000000E-02
      0.00000000000000E+00   0.00000000000000E+00   0.00000000000000E+00   0.00000000000000E+00   0.00000000000000E+00
     -1.23978446295916E-17   3.00000000000000E-02   3.00000000000000E-02   0.00000000000000E+00   0.00000000000000E+00
      1.14875839105700E-13   2.52500582124584E-15   1.17400844926946E-13   1.14246417832833E-17   1.20000000000000E-01
      1.20000000000000E-01   0.00000000000000E+00   0.00000000000000E+00   0.00000000000000E+00   0.00000000000000E+00
      0.00000000000000E+00   1.16458261920679E-17
      2.00000000000000E-01
      0.00000000000000E+00   0.00000000000000E+00   0.00000000000000E+00   0.00000000000000E+00  -1.05766440417631E-13
     -1.10204381130126E-14  -1.16786878530644E-13  -1.07171175407528E-17   8.00000000000000E-02   8.00000000000000E-02
      0.00000000000000E+00   0.00000000000000E+00   0.00000000000000E+00   0.00000000000000E+00   0.00000000000000E+00
     -1.12607009416572E-17   3.00000000000000E-02   3.00000000000000E-02   0.00000000000000E+00   0.00000000000000E+00
      1.14279784801878E-13   2.50709372876579E-15   1.16786878530644E-13   1.13806368848944E-17   1.20000000000000E-01
      1.20000000000000E-01   0.00000000000000E+00   0.00000000000000E+00   0.00000000000000E+00   0.00000000000000E+00
      0.00000000000000E+00   1.05971815975155E-17
      2.10000000000000E-01
      0.00000000000000E+00   0.00000000000000E+00   0.00000000000000E+00   0.00000000000000E+00  -1.06580080001371E-13
     -9.84315973722723E-15  -1.16423239738598E-13  -1.07615757803782E-17   8.40000000000000E-02   8.40000000000000E-02
      0.00000000000000E+00   0.00000000000000E+00   0.00000000000000E+00   0.00000000000000E+00   0.00000000000000E+00
     -1.01235622052347E-17   3.00000000000000E-02   3.00000000000000E-02   0.00000000000000E+00   0.00000000000000E+00
      1.13934018329387E-13   2.48922140921128E-15   1.16423239738598E-13   1.13366059257756E-17   1.20000000000000E-01
      1.20000000000000E-01   0.00000000000000E+00   0.00000000000000E+00   0.00000000000000E+00   0.00000000000000E+00
      0.00000000000000E+00   9.54853205983726E-18
      2.20000000000000E-01
      0.00000000000000E+00   0.00000000000000E+00   0.00000000000000E+00   0.00000000000000E+00  -1.07395970854671E-13
     -8.87718948140138E-15  -1.16273160336072E-13  -1.08059988264827E-17   8.80000000000000E-02   8.80000000000000E-02
      0.00000000000000E+00   0.00000000000000E+00   0.00000000000000E+00   0.00000000000000E+00   0.00000000000000E+00
     -8.98642775378420E-18   3.00000000000000E-02   3.00000000000000E-02   0.00000000000000E+00   0.00000000000000E+00
      1.13801770929041E-13   2.47138940703130E-15   1.16273160336072E-13   1.12925483358578E-17   1.20000000000000E-01
      1.20000000000000E-01   0.00000000000000E+00   0.00000000000000E+00   0.00000000000000E+00   0.00000000000000E+00
      0.00000000000000E+00   8.49987824440906E-18
      2.30000000000000E-01
      0.00000000000000E+00   0.00000000000000E+00   0.00000000000000E+00   0.00000000000000E+00  -1.08214090162297E-13
     -8.09184116626240E-15  -1.16305931328560E-13  -1.08503874232695E-17   9.20000000000000E-02   9.20000000000000E-02
      0.00000000000000E+00   0.00000000000000E+00   0.00000000000000E+00   0.00000000000000E+00   0.00000000000000E+00
     -7.84929692355173E-18   3.00000000000000E-02   3.00000000000000E-02   0.00000000000000E+00   0.00000000000000E+00
      1.13852333063547E-13   2.45359826501333E-15   1.16305931328560E-13   1.12484635329370E-17   1.20000000000000E-01
      1.20000000000000E-01   0.00000000000000E+00   0.00000000000000E+00   0.00000000000000E+00   0.00000000000000E+00
      0.00000000000000E+00   7.45122081388427E-18
      2.40000000000000E-01
      0.00000000000000E+00   0.00000000000000E+00   0.00000000000000E+00   0.00000000000000E+00  -1.09034415246814E-13
     -7.46178460753400E-15  -1.16496199854348E-13  -1.08947422977216E-17   9.60000000000000E-02   9.60000000000000E-02
      0.00000000000000E+00   0.00000000000000E+00   0.00000000000000E+00   0.00000000000000E+00   0.00000000000000E+00
     -6.71216905313611E-18   3.00000000000000E-02   3.00000000000000E-02   0.00000000000000E+00   0.00000000000000E+00
      1.14060351363060E-13   2.43584849128813E-15   1.16496199854348E-13   1.12043509222407E-17   1.20000000000000E-01
      1.20000000000000E-01   0.00000000000000E+00   0.00000000000000E+00   0.00000000000000E+00   0.00000000000000E+00
      0.00000000000000E+00   6.40256042861703E-18
      2.50000000000000E-01
      0.00000000000000E+00   0.00000000000000E+00   0.00000000000000E+00   0.00000000000000E+00  -1.09856923578163E-13
     -6.96644695380923E-15  -1.16823370531972E-13  -1.09390641600141E-17   1.00000000000000E-01   1.00000000000000E-01
      0.00000000000000E+00   0.00000000000000E+00   0.00000000000000E+00   0.00000000000000E+00   0.00000000000000E+00
     -5.57504348305854E-18   3.00000000000000E-02   3.00000000000000E-02   0.00000000000000E+00   0.00000000000000E+00
      1.14405229790243E-13   2.41814074172887E-15   1.16823370531972E-13   1.11602098959896E-17   1.20000000000000E-01
      1.20000000000000E-01   0.00000000000000E+00   0.00000000000000E+00   0.00000000000000E+00   0.00000000000000E+00
      0.00000000000000E+00   5.35389774708305E-18
      2.60000000000000E-01
      0.00000000000000E+00   0.00000000000000E+00   0.00000000000000E+00   0.00000000000000E+00  -1.10681592749079E-13
     -6.58951054931046E-15  -1.17271103298390E-13  -1.09833537039184E-17   1.04000000000000E-01   1.04000000000000E-01
      0.00000000000000E+00   0.00000000000000E+00   0.00000000000000E+00   0.00000000000000E+00   0.00000000000000E+00
     -4.43791955533508E-18   3.00000000000000E-02   3.00000000000000E-02   0.00000000000000E+00   0.00000000000000E+00
      1.14870627866482E-13   2.40047543190764E-15   1.17271103298390E-13   1.11160398329553E-17   1.20000000000000E-01
      1.20000000000000E-01   0.00000000000000E+00   0.00000000000000E+00   0.00000000000000E+00   0.00000000000000E+00
      0.00000000000000E+00   4.30523342629813E-18
      2.70000000000000E-01
      0.00000000000000E+00   0.00000000000000E+00   0.00000000000000E+00   0.00000000000000E+00  -1.11508400519408E-13
     -6.31850242434267E-15  -1.17826902943751E-13  -1.10276116071956E-17   1.08000000000000E-01   1.08000000000000E-01
      0.00000000000000E+00   0.00000000000000E+00   0.00000000000000E+00   0.00000000000000E+00   0.00000000000000E+00
     -3.30079661305108E-18   3.00000000000000E-02   3.00000000000000E-02   0.00000000000000E+00   0.00000000000000E+00
      1.15444049798718E-13   2.38285314503270E-15   1.17826902943751E-13   1.10718400980118E-17   1.20000000000000E-01
      1.20000000000000E-01   0.00000000000000E+00   0.00000000000000E+00   0.00000000000000E+00   0.00000000000000E+00
      0.00000000000000E+00   3.25656812223482E-18
      2.80000000000000E-01
      0.00000000000000E+00   0.00000000000000E+00   0.00000000000000E+00   0.00000000000000E+00  -1.12337324790324E-13
     -6.14446866623653E-15  -1.18481793456561E-13  -1.10718385319815E-17   1.12000000000000E-01   1.12000000000000E-01
      0.00000000000000E+00   0.00000000000000E+00   0.00000000000000E+00   0.00000000000000E+00   0.00000000000000E+00
     -2.16367399993703E-18   3.00000000000000E-02   3.00000000000000E-02   0.00000000000000E+00   0.00000000000000E+00
      1.16116518967257E-13   2.36527448930400E-15   1.18481793456561E-13   1.10276100416805E-17   1.20000000000000E-01
      1.20000000000000E-01   0.00000000000000E+00   0.00000000000000E+00   0.00000000000000E+00   0.00000000000000E+00
      0.00000000000000E+00   2.20790249023795E-18
      2.90000000000000E-01
      0.00000000000000E+00   0.00000000000000E+00   0.00000000000000E+00   0.00000000000000E+00  -1.13168343610329E-13
     -6.06172960545065E-15  -1.19230073215780E-13  -1.11160351251620E-17   1.16000000000000E-01   1.16000000000000E-01
      0.00000000000000E+00   0.00000000000000E+00   0.00000000000000E+00   0.00000000000000E+00   0.00000000000000E+00
     -1.02655105994543E-18   3.00000000000000E-02   3.00000000000000E-02   0.00000000000000E+00   0.00000000000000E+00
      1.16882333338770E-13   2.34773987700977E-15   1.19230073215780E-13   1.09833489996682E-17   1.20000000000000E-01
      1.20000000000000E-01   0.00000000000000E+00   0.00000000000000E+00   0.00000000000000E+00   0.00000000000000E+00
      0.00000000000000E+00   1.15923718543931E-18
      3.00000000000000E-01
      0.00000000000000E+00   0.00000000000000E+00   0.00000000000000E+00   0.00000000000000E+00  -1.14001435183225E-13
     -6.06771282911653E-15  -1.20069148012342E-13  -1.11602020187402E-17   1.20000000000000E-01   1.20000000000000E-01
      0.00000000000000E+00   0.00000000000000E+00   0.00000000000000E+00   0.00000000000000E+00   0.00000000000000E+00
      1.10572863172081E-19   3.00000000000000E-02   3.00000000000000E-02   0.00000000000000E+00   0.00000000000000E+00
      1.17738898097367E-13   2.33024991497451E-15   1.20069148012342E-13   1.09390562923961E-17   1.20000000000000E-01
      1.20000000000000E-01   0.00000000000000E+00   0.00000000000000E+00   0.00000000000000E+00   0.00000000000000E+00
      0.00000000000000E+00   1.10572863172045E-19
      3.10000000000000E-01
      0.00000000000000E+00   0.00000000000000E+00   0.00000000000000E+00   0.00000000000000E+00  -1.14836577885739E-13
     -6.16285992170423E-15  -1.20999437807444E-13  -1.12043398301936E-17   1.24000000000000E-01   1.24000000000000E-01
      0.00000000000000E+00   0.00000000000000E+00   0.00000000000000E+00   0.00000000000000E+00   0.00000000000000E+00
      1.24769842628768E-18   3.00000000000000E-02   3.00000000000000E-02   0.00000000000000E+00   0.00000000000000E+00
      1.18686632679216E-13   2.31280512822704E-15   1.20999437807444E-13   1.08947312245207E-17   1.20000000000000E-01
      1.20000000000000E-01   0.00000000000000E+00   0.00000000000000E+00   0.00000000000000E+00   0.00000000000000E+00
      0.00000000000000E+00  -9.38089820614761E-19
      3.20000000000000E-01
      0.00000000000000E+00   0.00000000000000E+00   0.00000000000000E+00   0.00000000000000E+00  -1.15673750234721E-13
     -6.35060596996963E-15  -1.22024356204690E-13  -1.12484491628243E-17   1.28000000000000E-01   1.28000000000000E-01
      0.00000000000000E+00   0.00000000000000E+00   0.00000000000000E+00   0.00000000000000E+00   0.00000000000000E+00
      2.38482628732119E-18   3.00000000000000E-02   3.00000000000000E-02   0.00000000000000E+00   0.00000000000000E+00
      1.19728950176021E-13   2.29540602866936E-15   1.22024356204690E-13   1.08503730844439E-17   1.20000000000000E-01
      1.20000000000000E-01   0.00000000000000E+00   0.00000000000000E+00   0.00000000000000E+00   0.00000000000000E+00
      0.00000000000000E+00  -1.98675020894084E-18
      3.30000000000000E-01
      0.00000000000000E+00   0.00000000000000E+00   0.00000000000000E+00   0.00000000000000E+00  -1.16512930913655E-13
     -6.63743028008141E-15  -1.23150361193737E-13  -1.12925306060996E-17   1.32000000000000E-01   1.32000000000000E-01
      0.00000000000000E+00   0.00000000000000E+00   0.00000000000000E+00   0.00000000000000E+00   0.00000000000000E+00
      3.52195710566505E-18   3.00000000000000E-02   3.00000000000000E-02   0.00000000000000E+00   0.00000000000000E+00
      1.20872308080260E-13   2.27805311347705E-15   1.23150361193737E-13   1.08059811438129E-17   1.20000000000000E-01
      1.20000000000000E-01   0.00000000000000E+00   0.00000000000000E+00   0.00000000000000E+00   0.00000000000000E+00
      0.00000000000000E+00  -3.03540764337832E-18
      3.40000000000000E-01
      0.00000000000000E+00   0.00000000000000E+00   0.00000000000000E+00   0.00000000000000E+00  -1.17354098771571E-13
     -7.03297810066065E-15  -1.24387076872231E-13  -1.13365847359851E-17   1.36000000000000E-01   1.36000000000000E-01
      0.00000000000000E+00   0.00000000000000E+00   0.00000000000000E+00   0.00000000000000E+00   0.00000000000000E+00
      4.65909154261123E-18   3.00000000000000E-02   3.00000000000000E-02   0.00000000000000E+00   0.00000000000000E+00
      1.22126329974390E-13   2.26074689784164E-15   1.24387076872231E-13   1.07615546570076E-17   1.20000000000000E-01
      1.20000000000000E-01   0.00000000000000E+00   0.00000000000000E+00   0.00000000000000E+00   0.00000000000000E+00
      0.00000000000000E+00  -4.08406146363369E-18
      3.50000000000000E-01
      0.00000000000000E+00   0.00000000000000E+00   0.00000000000000E+00   0.00000000000000E+00  -1.18197232828108E-13
     -7.55025378313973E-15  -1.25747486611248E-13  -1.13806121152697E-17   1.40000000000000E-01   1.40000000000000E-01
      0.00000000000000E+00   0.00000000000000E+00   0.00000000000000E+00   0.00000000000000E+00   0.00000000000000E+00
      5.79623026178056E-18   3.00000000000000E-02   3.00000000000000E-02   0.00000000000000E+00   0.00000000000000E+00
      1.23503998699147E-13   2.24348791210153E-15   1.25747486611248E-13   1.07170928606168E-17   1.20000000000000E-01
      1.20000000000000E-01   0.00000000000000E+00   0.00000000000000E+00   0.00000000000000E+00   0.00000000000000E+00
      0.00000000000000E+00  -5.13271100712767E-18
      3.60000000000000E-01
      0.00000000000000E+00   0.00000000000000E+00   0.00000000000000E+00   0.00000000000000E+00  -1.19042312251316E-13
     -8.20588664330055E-15  -1.27248198894617E-13  -1.14246132938824E-17   1.44000000000000E-01   1.44000000000000E-01
      0.00000000000000E+00   0.00000000000000E+00   0.00000000000000E+00   0.00000000000000E+00   0.00000000000000E+00
      6.93337392955498E-18   3.00000000000000E-02   3.00000000000000E-02   0.00000000000000E+00   0.00000000000000E+00
      1.25021922265656E-13   2.22627662896048E-15   1.27248198894617E-13   1.06725949728998E-17   1.20000000000000E-01
      1.20000000000000E-01   0.00000000000000E+00   0.00000000000000E+00   0.00000000000000E+00   0.00000000000000E+00
      0.00000000000000E+00  -6.18135560857234E-18
      3.70000000000000E-01
      0.00000000000000E+00   0.00000000000000E+00   0.00000000000000E+00   0.00000000000000E+00  -1.19889316401715E-13