DF-ISE text

Info {
  version   = 1.0
  type      = xyplot
  datasets  = [
    "time"
    "source OuterVoltage" "source InnerVoltage" "source QuasiFermiPotential" "source DisplacementCurrent" "source eCurrent"
    "source hCurrent" "source TotalCurrent" "source Charge" "topGate OuterVoltage" "topGate InnerVoltage"
    "topGate QuasiFermiPotential" "topGate DisplacementCurrent" "topGate eCurrent" "topGate hCurrent" "topGate TotalCurrent"
    "topGate Charge" "drain OuterVoltage" "drain InnerVoltage" "drain QuasiFermiPotential" "drain DisplacementCurrent"
    "drain eCurrent" "drain hCurrent" "drain TotalCurrent" "drain Charge" "bottomGate OuterVoltage"
    "bottomGate InnerVoltage" "bottomGate QuasiFermiPotential" "bottomGate DisplacementCurrent" "bottomGate eCurrent" "bottomGate hCurrent"
    "bottomGate TotalCurrent" "bottomGate Charge" ]
  functions = [
    Time
    OuterVoltage InnerVoltage QuasiFermiPotential DisplacementCurrent eCurrent
    hCurrent TotalCurrent Charge OuterVoltage InnerVoltage
    QuasiFermiPotential DisplacementCurrent eCurrent hCurrent TotalCurrent
    Charge OuterVoltage InnerVoltage QuasiFermiPotential DisplacementCurrent
    eCurrent hCurrent TotalCurrent Charge OuterVoltage
    InnerVoltage QuasiFermiPotential DisplacementCurrent eCurrent hCurrent
    TotalCurrent Charge ]
}

Data {
      1.00000000000000E-02
      0.00000000000000E+00   0.00000000000000E+00   0.00000000000000E+00   0.00000000000000E+00  -2.14543119006235E-13
     -1.13584424109909E-10  -1.13798967228915E-10  -1.28433061522158E-17   4.00000000000000E-03   4.00000000000000E-03
      0.00000000000000E+00   0.00000000000000E+00   0.00000000000000E+00   0.00000000000000E+00   0.00000000000000E+00
     -1.05420890731128E-16   1.90000000000000E-01   1.90000000000000E-01   0.00000000000000E+00   0.00000000000000E+00
      1.13794528132474E-10   4.43909644094508E-15   1.13798967228915E-10   1.27565270355006E-17   3.90000000000000E-01
      3.90000000000000E-01   0.00000000000000E+00   0.00000000000000E+00   0.00000000000000E+00   0.00000000000000E+00
      0.00000000000000E+00   1.05507669847844E-16
      2.00000000000000E-02
      0.00000000000000E+00   0.00000000000000E+00   0.00000000000000E+00   0.00000000000000E+00  -2.15856614416191E-13
     -1.07190145052056E-10  -1.07406001666473E-10  -1.28866762112644E-17   8.00000000000000E-03   8.00000000000000E-03
      0.00000000000000E+00   0.00000000000000E+00   0.00000000000000E+00   0.00000000000000E+00   0.00000000000000E+00
     -1.04284605814056E-16   1.90000000000000E-01   1.90000000000000E-01   0.00000000000000E+00   0.00000000000000E+00
      1.07401589357956E-10   4.41230851617092E-15   1.07406001666473E-10   1.27131154681067E-17   3.90000000000000E-01
      3.90000000000000E-01   0.00000000000000E+00   0.00000000000000E+00   0.00000000000000E+00   0.00000000000000E+00
      0.00000000000000E+00   1.04458166557213E-16
      3.00000000000000E-02
      0.00000000000000E+00   0.00000000000000E+00   0.00000000000000E+00   0.00000000000000E+00  -2.17171698697462E-13
     -1.01196791950433E-10  -1.01413963649130E-10  -1.29300330750677E-17   1.20000000000000E-02   1.20000000000000E-02
      0.00000000000000E+00   0.00000000000000E+00   0.00000000000000E+00   0.00000000000000E+00   0.00000000000000E+00
     -1.03148320381574E-16   1.90000000000000E-01   1.90000000000000E-01   0.00000000000000E+00   0.00000000000000E+00
      1.01409578039049E-10   4.38561008146170E-15   1.01413963649130E-10   1.26696896711415E-17   3.90000000000000E-01
      3.90000000000000E-01   0.00000000000000E+00   0.00000000000000E+00   0.00000000000000E+00   0.00000000000000E+00
      0.00000000000000E+00   1.03408663785500E-16
      4.00000000000000E-02
      0.00000000000000E+00   0.00000000000000E+00   0.00000000000000E+00   0.00000000000000E+00  -2.18488379995593E-13
     -9.55805593435021E-11  -9.57990477234977E-11  -1.29733769915582E-17   1.60000000000000E-02   1.60000000000000E-02
      0.00000000000000E+00   0.00000000000000E+00   0.00000000000000E+00   0.00000000000000E+00   0.00000000000000E+00
     -1.02012034170382E-16   1.90000000000000E-01   1.90000000000000E-01   0.00000000000000E+00   0.00000000000000E+00
      9.57946887233921E-11   4.35900010563075E-15   9.57990477234977E-11   1.26262493661082E-17   3.90000000000000E-01
      3.90000000000000E-01   0.00000000000000E+00   0.00000000000000E+00   0.00000000000000E+00   0.00000000000000E+00
      0.00000000000000E+00   1.02359161795832E-16
      5.00000000000000E-02
      0.00000000000000E+00   0.00000000000000E+00   0.00000000000000E+00   0.00000000000000E+00  -2.19806664290755E-13
     -9.03188622924565E-11  -9.05386689567473E-11  -1.30167082033435E-17   2.00000000000000E-02   2.00000000000000E-02
      0.00000000000000E+00   0.00000000000000E+00   0.00000000000000E+00   0.00000000000000E+00   0.00000000000000E+00
     -1.00875746916808E-16   1.90000000000000E-01   1.90000000000000E-01   0.00000000000000E+00   0.00000000000000E+00
      9.05343364793418E-11   4.33247740546517E-15   9.05386689567473E-11   1.25827942684267E-17   3.90000000000000E-01
      3.90000000000000E-01   0.00000000000000E+00   0.00000000000000E+00   0.00000000000000E+00   0.00000000000000E+00
      0.00000000000000E+00   1.01309660851725E-16
      6.00000000000000E-02
      0.00000000000000E+00   0.00000000000000E+00   0.00000000000000E+00   0.00000000000000E+00  -2.21126555591829E-13
     -8.53902859252711E-11  -8.56114124808630E-11  -1.30600269478320E-17   2.40000000000000E-02   2.40000000000000E-02
      0.00000000000000E+00   0.00000000000000E+00   0.00000000000000E+00   0.00000000000000E+00   0.00000000000000E+00
     -9.97394583566654E-17   1.90000000000000E-01   1.90000000000000E-01   0.00000000000000E+00   0.00000000000000E+00
      8.56071064402060E-11   4.30604065693852E-15   8.56114124808630E-11   1.25393240872749E-17   3.90000000000000E-01
      3.90000000000000E-01   0.00000000000000E+00   0.00000000000000E+00   0.00000000000000E+00   0.00000000000000E+00
      0.00000000000000E+00   1.00260161217222E-16
      7.00000000000000E-02
      0.00000000000000E+00   0.00000000000000E+00   0.00000000000000E+00   0.00000000000000E+00  -2.22448056113283E-13
     -8.07745367806477E-11  -8.09969848367610E-11  -1.31033334573543E-17   2.80000000000000E-02   2.80000000000000E-02
      0.00000000000000E+00   0.00000000000000E+00   0.00000000000000E+00   0.00000000000000E+00   0.00000000000000E+00
     -9.86031682251144E-17   1.90000000000000E-01   1.90000000000000E-01   0.00000000000000E+00   0.00000000000000E+00
      8.09927051483650E-11   4.27968839595683E-15   8.09969848367609E-11   1.24958385254276E-17   3.90000000000000E-01
      3.90000000000000E-01   0.00000000000000E+00   0.00000000000000E+00   0.00000000000000E+00   0.00000000000000E+00
      0.00000000000000E+00   9.92106631570410E-17
      8.00000000000000E-02
      0.00000000000000E+00   0.00000000000000E+00   0.00000000000000E+00   0.00000000000000E+00  -2.23771166437194E-13
     -7.64523958534468E-11  -7.66761670198840E-11  -1.31466279592826E-17   3.20000000000000E-02   3.20000000000000E-02
      0.00000000000000E+00   0.00000000000000E+00   0.00000000000000E+00   0.00000000000000E+00   0.00000000000000E+00
     -9.74668762565163E-17   1.90000000000000E-01   1.90000000000000E-01   0.00000000000000E+00   0.00000000000000E+00
      7.66719136008654E-11   4.25341901855765E-15   7.66761670198840E-11   1.24523372790911E-17   3.90000000000000E-01
      3.90000000000000E-01   0.00000000000000E+00   0.00000000000000E+00   0.00000000000000E+00   0.00000000000000E+00
      0.00000000000000E+00   9.81611669367078E-17
      9.00000000000000E-02
      0.00000000000000E+00   0.00000000000000E+00   0.00000000000000E+00   0.00000000000000E+00  -2.25095885664807E-13
     -7.24056732528853E-11  -7.26307691385502E-11  -1.31899106761467E-17   3.60000000000000E-02   3.60000000000000E-02
      0.00000000000000E+00   0.00000000000000E+00   0.00000000000000E+00   0.00000000000000E+00   0.00000000000000E+00
     -9.63305821842917E-17   1.90000000000000E-01   1.90000000000000E-01   0.00000000000000E+00   0.00000000000000E+00
      7.26265419077534E-11   4.22723079675373E-15   7.26307691385502E-11   1.24088200377334E-17   3.90000000000000E-01
      3.90000000000000E-01   0.00000000000000E+00   0.00000000000000E+00   0.00000000000000E+00   0.00000000000000E+00
      0.00000000000000E+00   9.71116728227050E-17
      1.00000000000000E-01
      0.00000000000000E+00   0.00000000000000E+00   0.00000000000000E+00   0.00000000000000E+00  -2.26422211550228E-13
     -6.86171643937040E-11  -6.88435866052543E-11  -1.32331818257471E-17   4.00000000000000E-02   4.00000000000000E-02
      0.00000000000000E+00   0.00000000000000E+00   0.00000000000000E+00   0.00000000000000E+00   0.00000000000000E+00
     -9.51942857407772E-17   1.90000000000000E-01   1.90000000000000E-01   0.00000000000000E+00   0.00000000000000E+00
      6.88393854833720E-11   4.20112188219511E-15   6.88435866052542E-11   1.23652864839120E-17   3.90000000000000E-01
      3.90000000000000E-01   0.00000000000000E+00   0.00000000000000E+00   0.00000000000000E+00   0.00000000000000E+00
      0.00000000000000E+00   9.60621810826122E-17
      1.10000000000000E-01
      0.00000000000000E+00   0.00000000000000E+00   0.00000000000000E+00   0.00000000000000E+00  -2.27750140629513E-13
     -6.50706076487838E-11  -6.52983577894133E-11  -1.32764416212652E-17   4.40000000000000E-02   4.40000000000000E-02
      0.00000000000000E+00   0.00000000000000E+00   0.00000000000000E+00   0.00000000000000E+00   0.00000000000000E+00
     -9.40579866570804E-17   1.90000000000000E-01   1.90000000000000E-01   0.00000000000000E+00   0.00000000000000E+00
      6.52941826991001E-11   4.17509031326068E-15   6.52983577894133E-11   1.23217362930955E-17   3.90000000000000E-01
      3.90000000000000E-01   0.00000000000000E+00   0.00000000000000E+00   0.00000000000000E+00   0.00000000000000E+00
      0.00000000000000E+00   9.50126919852501E-17
      1.20000000000000E-01
      0.00000000000000E+00   0.00000000000000E+00   0.00000000000000E+00   0.00000000000000E+00  -2.29079668332042E-13
     -6.17506433992239E-11  -6.19797230675559E-11  -1.33196902713716E-17   4.80000000000000E-02   4.80000000000000E-02
      0.00000000000000E+00   0.00000000000000E+00   0.00000000000000E+00   0.00000000000000E+00   0.00000000000000E+00
     -9.29216846629357E-17   1.90000000000000E-01   1.90000000000000E-01   0.00000000000000E+00   0.00000000000000E+00
      6.19755739335349E-11   4.14913402091592E-15   6.19797230675558E-11   1.22781691334827E-17   3.90000000000000E-01
      3.90000000000000E-01   0.00000000000000E+00   0.00000000000000E+00   0.00000000000000E+00   0.00000000000000E+00
      0.00000000000000E+00   9.39632058008245E-17
      1.30000000000000E-01
      0.00000000000000E+00   0.00000000000000E+00   0.00000000000000E+00   0.00000000000000E+00  -2.30410789088189E-13
     -5.86427744247621E-11  -5.88731852138503E-11  -1.33629279803302E-17   5.20000000000000E-02   5.20000000000000E-02
      0.00000000000000E+00   0.00000000000000E+00   0.00000000000000E+00   0.00000000000000E+00   0.00000000000000E+00
     -9.17853794865582E-17   1.90000000000000E-01   1.90000000000000E-01   0.00000000000000E+00   0.00000000000000E+00
      5.88690619630038E-11   4.12325084643994E-15   5.88731852138503E-11   1.22345846658165E-17   3.90000000000000E-01
      3.90000000000000E-01   0.00000000000000E+00   0.00000000000000E+00   0.00000000000000E+00   0.00000000000000E+00
      0.00000000000000E+00   9.29137228010720E-17
      1.40000000000000E-01
      0.00000000000000E+00   0.00000000000000E+00   0.00000000000000E+00   0.00000000000000E+00  -2.31743496426368E-13
     -5.57333275835986E-11  -5.59650710800249E-11  -1.34061549481014E-17   5.60000000000000E-02   5.60000000000000E-02
      0.00000000000000E+00   0.00000000000000E+00   0.00000000000000E+00   0.00000000000000E+00   0.00000000000000E+00
     -9.06490708544971E-17   1.90000000000000E-01   1.90000000000000E-01   0.00000000000000E+00   0.00000000000000E+00
      5.59609736414825E-11   4.09743854239248E-15   5.59650710800249E-11   1.21909825431927E-17   3.90000000000000E-01
      3.90000000000000E-01   0.00000000000000E+00   0.00000000000000E+00   0.00000000000000E+00   0.00000000000000E+00
      0.00000000000000E+00   9.18642432594059E-17
      1.50000000000000E-01
      0.00000000000000E+00   0.00000000000000E+00   0.00000000000000E+00   0.00000000000000E+00  -2.33077783060267E-13
     -5.30094167363005E-11  -5.32424945193607E-11  -1.34493713704414E-17   6.00000000000000E-02   6.00000000000000E-02
      0.00000000000000E+00   0.00000000000000E+00   0.00000000000000E+00   0.00000000000000E+00   0.00000000000000E+00
     -8.95127584914877E-17   1.90000000000000E-01   1.90000000000000E-01   0.00000000000000E+00   0.00000000000000E+00
      5.32384228245688E-11   4.07169479191380E-15   5.32424945193607E-11   1.21473624108651E-17   3.90000000000000E-01
      3.90000000000000E-01   0.00000000000000E+00   0.00000000000000E+00   0.00000000000000E+00   0.00000000000000E+00
      0.00000000000000E+00   9.08147674510640E-17
      1.60000000000000E-01
      0.00000000000000E+00   0.00000000000000E+00   0.00000000000000E+00   0.00000000000000E+00  -2.34413640970072E-13
     -5.04589068733955E-11  -5.06933205143656E-11  -1.34925774389999E-17   6.40000000000000E-02   6.40000000000000E-02
      0.00000000000000E+00   0.00000000000000E+00   0.00000000000000E+00   0.00000000000000E+00   0.00000000000000E+00
     -8.83764421203019E-17   1.90000000000000E-01   1.90000000000000E-01   0.00000000000000E+00   0.00000000000000E+00
      5.06892744971511E-11   4.04601721452679E-15   5.06933205143657E-11   1.21037239060449E-17   3.90000000000000E-01
      3.90000000000000E-01   0.00000000000000E+00   0.00000000000000E+00   0.00000000000000E+00   0.00000000000000E+00
      0.00000000000000E+00   8.97652956532570E-17
      1.70000000000000E-01
      0.00000000000000E+00   0.00000000000000E+00   0.00000000000000E+00   0.00000000000000E+00  -2.35751061478124E-13
     -4.80703794107147E-11  -4.83061304721929E-11  -1.35357733414149E-17   6.80000000000000E-02   6.80000000000000E-02
      0.00000000000000E+00   0.00000000000000E+00   0.00000000000000E+00   0.00000000000000E+00   0.00000000000000E+00
     -8.72401214615990E-17   1.90000000000000E-01   1.90000000000000E-01   0.00000000000000E+00   0.00000000000000E+00
      4.83021100688094E-11   4.02040338346228E-15   4.83061304721929E-11   1.20600666576951E-17   3.90000000000000E-01
      3.90000000000000E-01   0.00000000000000E+00   0.00000000000000E+00   0.00000000000000E+00   0.00000000000000E+00
      0.00000000000000E+00   8.87158281453187E-17
      1.80000000000000E-01
      0.00000000000000E+00   0.00000000000000E+00   0.00000000000000E+00   0.00000000000000E+00  -2.37090035317684E-13
     -4.58330986203842E-11  -4.60701886557019E-11  -1.35789592614054E-17   7.20000000000000E-02   7.20000000000000E-02
      0.00000000000000E+00   0.00000000000000E+00   0.00000000000000E+00   0.00000000000000E+00   0.00000000000000E+00
     -8.61037962337725E-17   1.90000000000000E-01   1.90000000000000E-01   0.00000000000000E+00   0.00000000000000E+00
      4.60661938048678E-11   3.99485083416650E-15   4.60701886557019E-11   1.20163902863204E-17   3.90000000000000E-01
      3.90000000000000E-01   0.00000000000000E+00   0.00000000000000E+00   0.00000000000000E+00   0.00000000000000E+00
      0.00000000000000E+00   8.76663652088575E-17
      1.90000000000000E-01
      0.00000000000000E+00   0.00000000000000E+00   0.00000000000000E+00   0.00000000000000E+00  -2.38430552690396E-13
     -4.37369791687728E-11  -4.39754097214632E-11  -1.36221353788619E-17   7.60000000000000E-02   7.60000000000000E-02
      0.00000000000000E+00   0.00000000000000E+00   0.00000000000000E+00   0.00000000000000E+00   0.00000000000000E+00
     -8.49674661527975E-17   1.90000000000000E-01   1.90000000000000E-01   0.00000000000000E+00   0.00000000000000E+00
      4.39714403643826E-11   3.96935708062224E-15   4.39754097214632E-11   1.19726944037503E-17   3.90000000000000E-01
      3.90000000000000E-01   0.00000000000000E+00   0.00000000000000E+00   0.00000000000000E+00   0.00000000000000E+00
      0.00000000000000E+00   8.66169071279091E-17
      2.00000000000000E-01
      0.00000000000000E+00   0.00000000000000E+00   0.00000000000000E+00   0.00000000000000E+00  -2.39772603329999E-13
     -4.17725547356064E-11  -4.20123273389364E-11  -1.36653018699344E-17   8.00000000000000E-02   8.00000000000000E-02
      0.00000000000000E+00   0.00000000000000E+00   0.00000000000000E+00   0.00000000000000E+00   0.00000000000000E+00
     -8.38311309320756E-17   1.90000000000000E-01   1.90000000000000E-01   0.00000000000000E+00   0.00000000000000E+00
      4.20083834193081E-11   3.94391962833187E-15   4.20123273389364E-11   1.19289786129182E-17   3.90000000000000E-01
      3.90000000000000E-01   0.00000000000000E+00   0.00000000000000E+00   0.00000000000000E+00   0.00000000000000E+00
      0.00000000000000E+00   8.55674541890917E-17
      2.10000000000000E-01
      0.00000000000000E+00   0.00000000000000E+00   0.00000000000000E+00   0.00000000000000E+00  -2.41116176549900E-13
     -3.99309476909567E-11  -4.01720638675066E-11  -1.37084589071183E-17   8.40000000000000E-02   8.40000000000000E-02
      0.00000000000000E+00   0.00000000000000E+00   0.00000000000000E+00   0.00000000000000E+00   0.00000000000000E+00
     -8.26947902822778E-17   1.90000000000000E-01   1.90000000000000E-01   0.00000000000000E+00   0.00000000000000E+00
      4.01681453315189E-11   3.91853598765735E-15   4.01720638675066E-11   1.18852425076334E-17   3.90000000000000E-01
      3.90000000000000E-01   0.00000000000000E+00   0.00000000000000E+00   0.00000000000000E+00   0.00000000000000E+00
      0.00000000000000E+00   8.45180066817626E-17
      2.20000000000000E-01
      0.00000000000000E+00   0.00000000000000E+00   0.00000000000000E+00   0.00000000000000E+00  -2.42461261292346E-13
     -3.82038398089233E-11  -3.84463010702157E-11  -1.37516066593384E-17   8.80000000000000E-02   8.80000000000000E-02
      0.00000000000000E+00   0.00000000000000E+00   0.00000000000000E+00   0.00000000000000E+00   0.00000000000000E+00
     -8.15584439111858E-17   1.90000000000000E-01   1.90000000000000E-01   0.00000000000000E+00   0.00000000000000E+00
      3.84424078665255E-11   3.89320369025867E-15   3.84463010702157E-11   1.18414856723479E-17   3.90000000000000E-01
      3.90000000000000E-01   0.00000000000000E+00   0.00000000000000E+00   0.00000000000000E+00   0.00000000000000E+00
      0.00000000000000E+00   8.34685648981764E-17
      2.30000000000000E-01
      0.00000000000000E+00   0.00000000000000E+00   0.00000000000000E+00   0.00000000000000E+00  -2.43807846172384E-13
     -3.65834439985721E-11  -3.68272518447445E-11  -1.37947452920306E-17   9.20000000000000E-02   9.20000000000000E-02
      0.00000000000000E+00   0.00000000000000E+00   0.00000000000000E+00   0.00000000000000E+00   0.00000000000000E+00
     -8.04220915235316E-17   1.90000000000000E-01   1.90000000000000E-01   0.00000000000000E+00   0.00000000000000E+00
      3.68233839244428E-11   3.86792030160521E-15   3.68272518447444E-11   1.17977076819167E-17   3.90000000000000E-01
      3.90000000000000E-01   0.00000000000000E+00   0.00000000000000E+00   0.00000000000000E+00   0.00000000000000E+00
      0.00000000000000E+00   8.24191291336455E-17
      2.40000000000000E-01
      0.00000000000000E+00   0.00000000000000E+00   0.00000000000000E+00   0.00000000000000E+00  -2.45155919515629E-13
     -3.50624770341332E-11  -3.53076329536489E-11  -1.38378749672216E-17   9.60000000000000E-02   9.60000000000000E-02
      0.00000000000000E+00   0.00000000000000E+00   0.00000000000000E+00   0.00000000000000E+00   0.00000000000000E+00
     -7.92857328208338E-17   1.90000000000000E-01   1.90000000000000E-01   0.00000000000000E+00   0.00000000000000E+00
      3.53037902702129E-11   3.84268343597044E-15   3.53076329536488E-11   1.17539081013520E-17   3.90000000000000E-01
      3.90000000000000E-01   0.00000000000000E+00   0.00000000000000E+00   0.00000000000000E+00   0.00000000000000E+00
      0.00000000000000E+00   8.13696996867033E-17
      2.50000000000000E-01
      0.00000000000000E+00   0.00000000000000E+00   0.00000000000000E+00   0.00000000000000E+00  -2.46505469396771E-13
     -3.36341332676123E-11  -3.38806387370090E-11  -1.38809958436070E-17   1.00000000000000E-01   1.00000000000000E-01
      0.00000000000000E+00   0.00000000000000E+00   0.00000000000000E+00   0.00000000000000E+00   0.00000000000000E+00
     -7.81493675012329E-17   1.90000000000000E-01   1.90000000000000E-01   0.00000000000000E+00   0.00000000000000E+00
      3.38768212462388E-11   3.81749077027017E-15   3.38806387370090E-11   1.17100864855709E-17   3.90000000000000E-01
      3.90000000000000E-01   0.00000000000000E+00   0.00000000000000E+00   0.00000000000000E+00   0.00000000000000E+00
      0.00000000000000E+00   8.03202768592690E-17
      2.60000000000000E-01
      0.00000000000000E+00   0.00000000000000E+00   0.00000000000000E+00   0.00000000000000E+00  -2.47856483672213E-13
     -3.22920593078590E-11  -3.25399157915312E-11  -1.39241080766269E-17   1.04000000000000E-01   1.04000000000000E-01
      0.00000000000000E+00   0.00000000000000E+00   0.00000000000000E+00   0.00000000000000E+00   0.00000000000000E+00
     -7.70129952593238E-17   1.90000000000000E-01   1.90000000000000E-01   0.00000000000000E+00   0.00000000000000E+00
      3.25361234514716E-11   3.79234005960320E-15   3.25399157915312E-11   1.16662423791357E-17   3.90000000000000E-01
      3.90000000000000E-01   0.00000000000000E+00   0.00000000000000E+00   0.00000000000000E+00   0.00000000000000E+00
      0.00000000000000E+00   7.92708609568148E-17
      2.70000000000000E-01
      0.00000000000000E+00   0.00000000000000E+00   0.00000000000000E+00   0.00000000000000E+00  -2.49208950007594E-13
     -3.10303296508119E-11  -3.12795386008195E-11  -1.39672118185400E-17   1.08000000000000E-01   1.08000000000000E-01
      0.00000000000000E+00   0.00000000000000E+00   0.00000000000000E+00   0.00000000000000E+00   0.00000000000000E+00
     -7.58766157859849E-17   1.90000000000000E-01   1.90000000000000E-01   0.00000000000000E+00   0.00000000000000E+00
      3.12757713716690E-11   3.76722915042295E-15   3.12795386008195E-11   1.16223753159884E-17   3.90000000000000E-01
      3.90000000000000E-01   0.00000000000000E+00   0.00000000000000E+00   0.00000000000000E+00   0.00000000000000E+00
      0.00000000000000E+00   7.82214522885366E-17
      2.80000000000000E-01
      0.00000000000000E+00   0.00000000000000E+00   0.00000000000000E+00   0.00000000000000E+00  -2.50562855907028E-13
     -2.98434232461139E-11  -3.00939861020209E-11  -1.40103072184962E-17   1.12000000000000E-01   1.12000000000000E-01
      0.00000000000000E+00   0.00000000000000E+00   0.00000000000000E+00   0.00000000000000E+00   0.00000000000000E+00
     -7.47402287682059E-17   1.90000000000000E-01   1.90000000000000E-01   0.00000000000000E+00   0.00000000000000E+00
      3.00902439460282E-11   3.74215599271633E-15   3.00939861020209E-11   1.15784848191765E-17   3.90000000000000E-01
      3.90000000000000E-01   0.00000000000000E+00   0.00000000000000E+00   0.00000000000000E+00   0.00000000000000E+00
      0.00000000000000E+00   7.71720511675256E-17
      2.90000000000000E-01
      0.00000000000000E+00   0.00000000000000E+00   0.00000000000000E+00   0.00000000000000E+00  -2.51918188739468E-13
     -2.87262009856058E-11  -2.89781191743453E-11  -1.40533944226064E-17   1.16000000000000E-01   1.16000000000000E-01
      0.00000000000000E+00   0.00000000000000E+00   0.00000000000000E+00   0.00000000000000E+00   0.00000000000000E+00
     -7.36038338889116E-17   1.90000000000000E-01   1.90000000000000E-01   0.00000000000000E+00   0.00000000000000E+00
      2.89744020556902E-11   3.71711865503346E-15   2.89781191743453E-11   1.15345704005729E-17   3.90000000000000E-01
      3.90000000000000E-01   0.00000000000000E+00   0.00000000000000E+00   0.00000000000000E+00   0.00000000000000E+00
      0.00000000000000E+00   7.61226579109451E-17
      3.00000000000000E-01
      0.00000000000000E+00   0.00000000000000E+00   0.00000000000000E+00   0.00000000000000E+00  -2.53274935757455E-13
     -2.76738840993572E-11  -2.79271590351147E-11  -1.40964735740119E-17   1.20000000000000E-01   1.20000000000000E-01
      0.00000000000000E+00   0.00000000000000E+00   0.00000000000000E+00   0.00000000000000E+00   0.00000000000000E+00
     -7.24674308267835E-17   1.90000000000000E-01   1.90000000000000E-01   0.00000000000000E+00   0.00000000000000E+00
      2.79234669197801E-11   3.69211533460467E-15   2.79271590351147E-11   1.14906315605873E-17   3.90000000000000E-01
      3.90000000000000E-01   0.00000000000000E+00   0.00000000000000E+00   0.00000000000000E+00   0.00000000000000E+00
      0.00000000000000E+00   7.50732728402082E-17
      3.10000000000000E-01
      0.00000000000000E+00   0.00000000000000E+00   0.00000000000000E+00   0.00000000000000E+00  -2.54633084117937E-13
     -2.66820334449481E-11  -2.69366665290661E-11  -1.41395448129511E-17   1.24000000000000E-01   1.24000000000000E-01
      0.00000000000000E+00   0.00000000000000E+00   0.00000000000000E+00   0.00000000000000E+00   0.00000000000000E+00
     -7.13310192560779E-17   1.90000000000000E-01   1.90000000000000E-01   0.00000000000000E+00   0.00000000000000E+00
      2.69329993846957E-11   3.66714437034949E-15   2.69366665290661E-11   1.14466677878694E-17   3.90000000000000E-01
      3.90000000000000E-01   0.00000000000000E+00   0.00000000000000E+00   0.00000000000000E+00   0.00000000000000E+00
      0.00000000000000E+00   7.40238962811595E-17
      3.20000000000000E-01
      0.00000000000000E+00   0.00000000000000E+00   0.00000000000000E+00   0.00000000000000E+00  -2.55992620902965E-13
     -2.57465296756421E-11  -2.60025222965451E-11  -1.41826082768248E-17   1.28000000000000E-01   1.28000000000000E-01
      0.00000000000000E+00   0.00000000000000E+00   0.00000000000000E+00   0.00000000000000E+00   0.00000000000000E+00
     -7.01945988464405E-17   1.90000000000000E-01   1.90000000000000E-01   0.00000000000000E+00   0.00000000000000E+00
      2.59988800922929E-11   3.64220425221267E-15   2.60025222965451E-11   1.14026785590050E-17   3.90000000000000E-01
      3.90000000000000E-01   0.00000000000000E+00   0.00000000000000E+00   0.00000000000000E+00   0.00000000000000E+00
      0.00000000000000E+00   7.29745285642603E-17
      3.30000000000000E-01
      0.00000000000000E+00   0.00000000000000E+00   0.00000000000000E+00   0.00000000000000E+00  -2.57353533133986E-13
     -2.48635542729586E-11  -2.51209078060926E-11  -1.42256641002606E-17   1.32000000000000E-01   1.32000000000000E-01
      0.00000000000000E+00   0.00000000000000E+00   0.00000000000000E+00   0.00000000000000E+00   0.00000000000000E+00
     -6.90581692627184E-17   1.90000000000000E-01   1.90000000000000E-01   0.00000000000000E+00   0.00000000000000E+00
      2.51172905124604E-11   3.61729363221740E-15   2.51209078060926E-11   1.13586633382023E-17   3.90000000000000E-01
      3.90000000000000E-01   0.00000000000000E+00   0.00000000000000E+00   0.00000000000000E+00   0.00000000000000E+00
      0.00000000000000E+00   7.19251700247767E-17
      3.40000000000000E-01
      0.00000000000000E+00   0.00000000000000E+00   0.00000000000000E+00   0.00000000000000E+00  -2.58715807784145E-13
     -2.40295714289311E-11  -2.42882872367152E-11  -1.42687124151745E-17   1.36000000000000E-01   1.36000000000000E-01
      0.00000000000000E+00   0.00000000000000E+00   0.00000000000000E+00   0.00000000000000E+00   0.00000000000000E+00
     -6.79217301647677E-17   1.90000000000000E-01   1.90000000000000E-01   0.00000000000000E+00   0.00000000000000E+00
      2.42846948253840E-11   3.59241133119669E-15   2.42882872367152E-11   1.13146215769710E-17   3.90000000000000E-01
      3.90000000000000E-01   0.00000000000000E+00   0.00000000000000E+00   0.00000000000000E+00   0.00000000000000E+00
      0.00000000000000E+00   7.08758210029711E-17
      3.50000000000000E-01
      0.00000000000000E+00   0.00000000000000E+00   0.00000000000000E+00   0.00000000000000E+00  -2.60079431797930E-13
     -2.32413107630933E-11  -2.35013901948912E-11  -1.43117533508322E-17   1.40000000000000E-01   1.40000000000000E-01
      0.00000000000000E+00   0.00000000000000E+00   0.00000000000000E+00   0.00000000000000E+00   0.00000000000000E+00
     -6.67852812072573E-17   1.90000000000000E-01   1.90000000000000E-01   0.00000000000000E+00   0.00000000000000E+00
      2.34978226385433E-11   3.56755634789588E-15   2.35013901948912E-11   1.12705527137908E-17   3.90000000000000E-01
      3.90000000000000E-01   0.00000000000000E+00   0.00000000000000E+00   0.00000000000000E+00   0.00000000000000E+00
      0.00000000000000E+00   6.98264818442987E-17
      3.60000000000000E-01
      0.00000000000000E+00   0.00000000000000E+00   0.00000000000000E+00   0.00000000000000E+00  -2.61444392093848E-13
     -2.24957508589231E-11  -2.27571952510170E-11  -1.43547870339080E-17   1.44000000000000E-01   1.44000000000000E-01
      0.00000000000000E+00   0.00000000000000E+00   0.00000000000000E+00   0.00000000000000E+00   0.00000000000000E+00
     -6.56488220394701E-17   1.90000000000000E-01   1.90000000000000E-01   0.00000000000000E+00   0.00000000000000E+00
      2.27536525231530E-11   3.54272786393113E-15   2.27571952510169E-11   1.12264561737722E-17   3.90000000000000E-01
      3.90000000000000E-01   0.00000000000000E+00   0.00000000000000E+00   0.00000000000000E+00   0.00000000000000E+00
      0.00000000000000E+00   6.87771528996060E-17
      3.70000000000000E-01
      0.00000000000000E+00   0.00000000000000E+00   0.00000000000000E+00   0.00000000000000E+00  -2.62810675581626E-13