DF-ISE text

Info {
  version   = 1.0
  type      = xyplot
  datasets  = [
    "time"
    "source OuterVoltage" "source InnerVoltage" "source QuasiFermiPotential" "source DisplacementCurrent" "source eCurrent"
    "source hCurrent" "source TotalCurrent" "source Charge" "topGate OuterVoltage" "topGate InnerVoltage"
    "topGate QuasiFermiPotential" "topGate DisplacementCurrent" "topGate eCurrent" "topGate hCurrent" "topGate TotalCurrent"
    "topGate Charge" "drain OuterVoltage" "drain InnerVoltage" "drain QuasiFermiPotential" "drain DisplacementCurrent"
    "drain eCurrent" "drain hCurrent" "drain TotalCurrent" "drain Charge" "bottomGate OuterVoltage"
    "bottomGate InnerVoltage" "bottomGate QuasiFermiPotential" "bottomGate DisplacementCurrent" "bottomGate eCurrent" "bottomGate hCurrent"
    "bottomGate TotalCurrent" "bottomGate Charge" ]
  functions = [
    Time
    OuterVoltage InnerVoltage QuasiFermiPotential DisplacementCurrent eCurrent
    hCurrent TotalCurrent Charge OuterVoltage InnerVoltage
    QuasiFermiPotential DisplacementCurrent eCurrent hCurrent TotalCurrent
    Charge OuterVoltage InnerVoltage QuasiFermiPotential DisplacementCurrent
    eCurrent hCurrent TotalCurrent Charge OuterVoltage
    InnerVoltage QuasiFermiPotential DisplacementCurrent eCurrent hCurrent
    TotalCurrent Charge ]
}

Data {
      1.00000000000000E-02
      0.00000000000000E+00   0.00000000000000E+00   0.00000000000000E+00   0.00000000000000E+00  -1.21250355436396E-13
     -7.19820106156244E-11  -7.21032609710608E-11  -9.40856709460011E-18   4.00000000000000E-03   4.00000000000000E-03
      0.00000000000000E+00   0.00000000000000E+00   0.00000000000000E+00   0.00000000000000E+00   0.00000000000000E+00
     -2.50692152559307E-17   2.80000000000000E-01   2.80000000000000E-01   0.00000000000000E+00   0.00000000000000E+00
      7.20959315311416E-11   7.32943991918199E-15   7.21032609710608E-11   1.80170144228233E-17   8.00000000000000E-02
      8.00000000000000E-02   0.00000000000000E+00   0.00000000000000E+00   0.00000000000000E+00   0.00000000000000E+00
      0.00000000000000E+00   1.64607679277076E-17
      2.00000000000000E-02
      0.00000000000000E+00   0.00000000000000E+00   0.00000000000000E+00   0.00000000000000E+00  -1.22325097103919E-13
     -6.78357682151347E-11  -6.79580933122386E-11  -9.45446425116876E-18   8.00000000000000E-03   8.00000000000000E-03
      0.00000000000000E+00   0.00000000000000E+00   0.00000000000000E+00   0.00000000000000E+00   0.00000000000000E+00
     -2.39320113327483E-17   2.80000000000000E-01   2.80000000000000E-01   0.00000000000000E+00   0.00000000000000E+00
      6.79507353231361E-11   7.35798910243285E-15   6.79580933122386E-11   1.79742928331663E-17   8.00000000000000E-02
      8.00000000000000E-02   0.00000000000000E+00   0.00000000000000E+00   0.00000000000000E+00   0.00000000000000E+00
      0.00000000000000E+00   1.54121827507508E-17
      3.00000000000000E-02
      0.00000000000000E+00   0.00000000000000E+00   0.00000000000000E+00   0.00000000000000E+00  -1.23404131201424E-13
     -6.39477863232780E-11  -6.40711904544794E-11  -9.50029489942390E-18   1.20000000000000E-02   1.20000000000000E-02
      0.00000000000000E+00   0.00000000000000E+00   0.00000000000000E+00   0.00000000000000E+00   0.00000000000000E+00
     -2.27948405306558E-17   2.80000000000000E-01   2.80000000000000E-01   0.00000000000000E+00   0.00000000000000E+00
      6.40638083179451E-11   7.38213653432428E-15   6.40711904544794E-11   1.79315708859145E-17   8.00000000000000E-02
      8.00000000000000E-02   0.00000000000000E+00   0.00000000000000E+00   0.00000000000000E+00   0.00000000000000E+00
      0.00000000000000E+00   1.43635645441652E-17
      4.00000000000000E-02
      0.00000000000000E+00   0.00000000000000E+00   0.00000000000000E+00   0.00000000000000E+00  -1.24487422904517E-13
     -6.03034960777582E-11  -6.04279835006627E-11  -9.54606051291904E-18   1.60000000000000E-02   1.60000000000000E-02
      0.00000000000000E+00   0.00000000000000E+00   0.00000000000000E+00   0.00000000000000E+00   0.00000000000000E+00
     -2.16577020360301E-17   2.80000000000000E-01   2.80000000000000E-01   0.00000000000000E+00   0.00000000000000E+00
      6.04205813017108E-11   7.40219895179015E-15   6.04279835006626E-11   1.78888484358524E-17   8.00000000000000E-02
      8.00000000000000E-02   0.00000000000000E+00   0.00000000000000E+00   0.00000000000000E+00   0.00000000000000E+00
      0.00000000000000E+00   1.33149141130967E-17
      5.00000000000000E-02
      0.00000000000000E+00   0.00000000000000E+00   0.00000000000000E+00   0.00000000000000E+00  -1.25574937212837E-13
     -5.68890528563334E-11  -5.70146277935462E-11  -9.59176253091689E-18   2.00000000000000E-02   2.00000000000000E-02
      0.00000000000000E+00   0.00000000000000E+00   0.00000000000000E+00   0.00000000000000E+00   0.00000000000000E+00
     -2.05205950570100E-17   2.80000000000000E-01   2.80000000000000E-01   0.00000000000000E+00   0.00000000000000E+00
      5.70072093234607E-11   7.41847008554343E-15   5.70146277935462E-11   1.78461253462428E-17   8.00000000000000E-02
      8.00000000000000E-02   0.00000000000000E+00   0.00000000000000E+00   0.00000000000000E+00   0.00000000000000E+00
      0.00000000000000E+00   1.22662322416841E-17
      6.00000000000000E-02
      0.00000000000000E+00   0.00000000000000E+00   0.00000000000000E+00   0.00000000000000E+00  -1.26666638975276E-13
     -5.36913081447703E-11  -5.38179747837456E-11  -9.63740235916894E-18   2.40000000000000E-02   2.40000000000000E-02
      0.00000000000000E+00   0.00000000000000E+00   0.00000000000000E+00   0.00000000000000E+00   0.00000000000000E+00
     -1.93835188227300E-17   2.80000000000000E-01   2.80000000000000E-01   0.00000000000000E+00   0.00000000000000E+00
      5.38105435581699E-11   7.43122557565300E-15   5.38179747837456E-11   1.78034014881390E-17   8.00000000000000E-02
      8.00000000000000E-02   0.00000000000000E+00   0.00000000000000E+00   0.00000000000000E+00   0.00000000000000E+00
      0.00000000000000E+00   1.12175196937600E-17
      7.00000000000000E-02
      0.00000000000000E+00   0.00000000000000E+00   0.00000000000000E+00   0.00000000000000E+00  -1.27762492913768E-13
     -5.06977820632629E-11  -5.08255445561767E-11  -9.68298137067979E-18   2.80000000000000E-02   2.80000000000000E-02
      0.00000000000000E+00   0.00000000000000E+00   0.00000000000000E+00   0.00000000000000E+00   0.00000000000000E+00
     -1.82464725825890E-17   2.80000000000000E-01   2.80000000000000E-01   0.00000000000000E+00   0.00000000000000E+00
      5.08181038346220E-11   7.44072155473747E-15   5.08255445561767E-11   1.77606767397471E-17   8.00000000000000E-02
      8.00000000000000E-02   0.00000000000000E+00   0.00000000000000E+00   0.00000000000000E+00   0.00000000000000E+00
      0.00000000000000E+00   1.01687772135217E-17
      8.00000000000000E-02
      0.00000000000000E+00   0.00000000000000E+00   0.00000000000000E+00   0.00000000000000E+00  -1.28862463645749E-13
     -4.78966365646873E-11  -4.80254990283331E-11  -9.72850090645646E-18   3.20000000000000E-02   3.20000000000000E-02
      0.00000000000000E+00   0.00000000000000E+00   0.00000000000000E+00   0.00000000000000E+00   0.00000000000000E+00
     -1.71094556055543E-17   2.80000000000000E-01   2.80000000000000E-01   0.00000000000000E+00   0.00000000000000E+00
      4.80180518317588E-11   7.44719657425630E-15   4.80254990283331E-11   1.77179509858387E-17   8.00000000000000E-02
      8.00000000000000E-02   0.00000000000000E+00   0.00000000000000E+00   0.00000000000000E+00   0.00000000000000E+00
      0.00000000000000E+00   9.12000552617213E-18
      9.00000000000000E-02
      0.00000000000000E+00   0.00000000000000E+00   0.00000000000000E+00   0.00000000000000E+00  -1.29966515705360E-13
     -4.52766493040877E-11  -4.54066158197930E-11  -9.77396227624293E-18   3.60000000000000E-02   3.60000000000000E-02
      0.00000000000000E+00   0.00000000000000E+00   0.00000000000000E+00   0.00000000000000E+00   0.00000000000000E+00
     -1.59724671794976E-17   2.80000000000000E-01   2.80000000000000E-01   0.00000000000000E+00   0.00000000000000E+00
      4.53991649465535E-11   7.45087323950043E-15   4.54066158197930E-11   1.76752241172066E-17   8.00000000000000E-02
      8.00000000000000E-02   0.00000000000000E+00   0.00000000000000E+00   0.00000000000000E+00   0.00000000000000E+00
      0.00000000000000E+00   8.07120533853395E-18
      1.00000000000000E-01
      0.00000000000000E+00   0.00000000000000E+00   0.00000000000000E+00   0.00000000000000E+00  -1.31074613563495E-13
     -4.28271881805920E-11  -4.29582627941554E-11  -9.81936675923969E-18   4.00000000000000E-02   4.00000000000000E-02
      0.00000000000000E+00   0.00000000000000E+00   0.00000000000000E+00   0.00000000000000E+00   0.00000000000000E+00
     -1.48355066105605E-17   2.80000000000000E-01   2.80000000000000E-01   0.00000000000000E+00   0.00000000000000E+00
      4.29508108357616E-11   7.45195839384482E-15   4.29582627941554E-11   1.76324960301624E-17   8.00000000000000E-02
      8.00000000000000E-02   0.00000000000000E+00   0.00000000000000E+00   0.00000000000000E+00   0.00000000000000E+00
      0.00000000000000E+00   7.02237733963785E-18
      1.10000000000000E-01
      0.00000000000000E+00   0.00000000000000E+00   0.00000000000000E+00   0.00000000000000E+00  -1.32186721646746E-13
     -4.05381865561474E-11  -4.06703732777942E-11  -9.86471560480894E-18   4.40000000000000E-02   4.40000000000000E-02
      0.00000000000000E+00   0.00000000000000E+00   0.00000000000000E+00   0.00000000000000E+00   0.00000000000000E+00
     -1.36985732225491E-17   2.80000000000000E-01   2.80000000000000E-01   0.00000000000000E+00   0.00000000000000E+00
      4.06629226332401E-11   7.45064455410530E-15   4.06703732777942E-11   1.75897666260716E-17   8.00000000000000E-02
      8.00000000000000E-02   0.00000000000000E+00   0.00000000000000E+00   0.00000000000000E+00   0.00000000000000E+00
      0.00000000000000E+00   5.97352220128651E-18
      1.20000000000000E-01
      0.00000000000000E+00   0.00000000000000E+00   0.00000000000000E+00   0.00000000000000E+00  -1.33302804355327E-13
     -3.84001191501882E-11  -3.85334219545435E-11  -9.91001003316525E-18   4.80000000000000E-02   4.80000000000000E-02
      0.00000000000000E+00   0.00000000000000E+00   0.00000000000000E+00   0.00000000000000E+00   0.00000000000000E+00
     -1.25616663563539E-17   2.80000000000000E-01   2.80000000000000E-01   0.00000000000000E+00   0.00000000000000E+00
      3.85259748438451E-11   7.44711069845158E-15   3.85334219545436E-11   1.75470358109233E-17   8.00000000000000E-02
      8.00000000000000E-02   0.00000000000000E+00   0.00000000000000E+00   0.00000000000000E+00   0.00000000000000E+00
      0.00000000000000E+00   4.92464057859588E-18
      1.30000000000000E-01
      0.00000000000000E+00   0.00000000000000E+00   0.00000000000000E+00   0.00000000000000E+00  -1.34422826080024E-13
     -3.64039786117751E-11  -3.65384014378552E-11  -9.95525123605192E-18   5.20000000000000E-02   5.20000000000000E-02
      0.00000000000000E+00   0.00000000000000E+00   0.00000000000000E+00   0.00000000000000E+00   0.00000000000000E+00
     -1.14247853693955E-17   2.80000000000000E-01   2.80000000000000E-01   0.00000000000000E+00   0.00000000000000E+00
      3.65309599142491E-11   7.44152360602369E-15   3.65384014378552E-11   1.75043034949326E-17   8.00000000000000E-02
      8.00000000000000E-02   0.00000000000000E+00   0.00000000000000E+00   0.00000000000000E+00   0.00000000000000E+00
      0.00000000000000E+00   3.87573311051477E-18
      1.40000000000000E-01
      0.00000000000000E+00   0.00000000000000E+00   0.00000000000000E+00   0.00000000000000E+00  -1.35546751218240E-13
     -3.45412527667615E-11  -3.46767995179798E-11  -1.00004403774035E-17   5.60000000000000E-02   5.60000000000000E-02
      0.00000000000000E+00   0.00000000000000E+00   0.00000000000000E+00   0.00000000000000E+00   0.00000000000000E+00
     -1.02879296350930E-17   2.80000000000000E-01   2.80000000000000E-01   0.00000000000000E+00   0.00000000000000E+00
      3.46693654803513E-11   7.43403762845517E-15   3.46767995179798E-11   1.74615695921721E-17   8.00000000000000E-02
      8.00000000000000E-02   0.00000000000000E+00   0.00000000000000E+00   0.00000000000000E+00   0.00000000000000E+00
      0.00000000000000E+00   2.82680042032434E-18
      1.50000000000000E-01
      0.00000000000000E+00   0.00000000000000E+00   0.00000000000000E+00   0.00000000000000E+00  -1.36674544189176E-13
     -3.28039025430084E-11  -3.29405770871976E-11  -1.00455785939939E-17   6.00000000000000E-02   6.00000000000000E-02
      0.00000000000000E+00   0.00000000000000E+00   0.00000000000000E+00   0.00000000000000E+00   0.00000000000000E+00
     -9.15109854235488E-18   2.80000000000000E-01   2.80000000000000E-01   0.00000000000000E+00   0.00000000000000E+00
      3.29331522902998E-11   7.42479689781441E-15   3.29405770871976E-11   1.74188340202306E-17   8.00000000000000E-02
      8.00000000000000E-02   0.00000000000000E+00   0.00000000000000E+00   0.00000000000000E+00   0.00000000000000E+00
      0.00000000000000E+00   1.77784311611822E-18
      1.60000000000000E-01
      0.00000000000000E+00   0.00000000000000E+00   0.00000000000000E+00   0.00000000000000E+00  -1.37806169448202E-13
     -3.11843405661437E-11  -3.13221467355919E-11  -1.00906669960717E-17   6.40000000000000E-02   6.40000000000000E-02
      0.00000000000000E+00   0.00000000000000E+00   0.00000000000000E+00   0.00000000000000E+00   0.00000000000000E+00
     -8.01429149509019E-18   2.80000000000000E-01   2.80000000000000E-01   0.00000000000000E+00   0.00000000000000E+00
      3.13147328014973E-11   7.41393409461136E-15   3.13221467355919E-11   1.73760966998973E-17   8.00000000000000E-02
      8.00000000000000E-02   0.00000000000000E+00   0.00000000000000E+00   0.00000000000000E+00   0.00000000000000E+00
      0.00000000000000E+00   7.28861791264511E-19
      1.70000000000000E-01
      0.00000000000000E+00   0.00000000000000E+00   0.00000000000000E+00   0.00000000000000E+00  -1.38941591500461E-13
     -2.96754104314412E-11  -2.98143520229417E-11  -1.01357066679807E-17   6.80000000000000E-02   6.80000000000000E-02
      0.00000000000000E+00   0.00000000000000E+00   0.00000000000000E+00   0.00000000000000E+00   0.00000000000000E+00
     -6.87750791173929E-18   2.80000000000000E-01   2.80000000000000E-01   0.00000000000000E+00   0.00000000000000E+00
      2.98069504493315E-11   7.40157361020620E-15   2.98143520229417E-11   1.73333575548693E-17   8.00000000000000E-02
      8.00000000000000E-02   0.00000000000000E+00   0.00000000000000E+00   0.00000000000000E+00   0.00000000000000E+00
      0.00000000000000E+00  -3.20142975149320E-19
      1.80000000000000E-01
      0.00000000000000E+00   0.00000000000000E+00   0.00000000000000E+00   0.00000000000000E+00  -1.40080774913747E-13
     -2.82703666401515E-11  -2.84104474150653E-11  -1.01806986687687E-17   7.20000000000000E-02   7.20000000000000E-02
      0.00000000000000E+00   0.00000000000000E+00   0.00000000000000E+00   0.00000000000000E+00   0.00000000000000E+00
     -5.74074722482304E-18   2.80000000000000E-01   2.80000000000000E-01   0.00000000000000E+00   0.00000000000000E+00
      2.84030595847620E-11   7.38783030324341E-15   2.84104474150653E-11   1.72906165114796E-17   8.00000000000000E-02
      8.00000000000000E-02   0.00000000000000E+00   0.00000000000000E+00   0.00000000000000E+00   0.00000000000000E+00
      0.00000000000000E+00  -1.36917061788787E-18
      1.90000000000000E-01
      0.00000000000000E+00   0.00000000000000E+00   0.00000000000000E+00   0.00000000000000E+00  -1.41223684330690E-13
     -2.69628552035889E-11  -2.71040788879196E-11  -1.02256440327813E-17   7.60000000000000E-02   7.60000000000000E-02
      0.00000000000000E+00   0.00000000000000E+00   0.00000000000000E+00   0.00000000000000E+00   0.00000000000000E+00
     -4.60400888050937E-18   2.80000000000000E-01   2.80000000000000E-01   0.00000000000000E+00   0.00000000000000E+00
      2.70967060773059E-11   7.37281061367046E-15   2.71040788879196E-11   1.72478734984454E-17   8.00000000000000E-02
      8.00000000000000E-02   0.00000000000000E+00   0.00000000000000E+00   0.00000000000000E+00   0.00000000000000E+00
      0.00000000000000E+00  -2.41822058515467E-18
      2.00000000000000E-01
      0.00000000000000E+00   0.00000000000000E+00   0.00000000000000E+00   0.00000000000000E+00  -1.42370284480305E-13
     -2.57468949080777E-11  -2.58892651925580E-11  -1.02705437702449E-17   8.00000000000000E-02   8.00000000000000E-02
      0.00000000000000E+00   0.00000000000000E+00   0.00000000000000E+00   0.00000000000000E+00   0.00000000000000E+00
     -3.46729233819624E-18   2.80000000000000E-01   2.80000000000000E-01   0.00000000000000E+00   0.00000000000000E+00
      2.58819085793970E-11   7.35661316105563E-15   2.58892651925580E-11   1.72051284466347E-17   8.00000000000000E-02
      8.00000000000000E-02   0.00000000000000E+00   0.00000000000000E+00   0.00000000000000E+00   0.00000000000000E+00
      0.00000000000000E+00  -3.46729233819358E-18
      2.10000000000000E-01
      0.00000000000000E+00   0.00000000000000E+00   0.00000000000000E+00   0.00000000000000E+00  -1.43520540188912E-13
     -2.46168592369275E-11  -2.47603797771165E-11  -1.03153988678350E-17   8.40000000000000E-02   8.40000000000000E-02
      0.00000000000000E+00   0.00000000000000E+00   0.00000000000000E+00   0.00000000000000E+00   0.00000000000000E+00
     -2.33059707010994E-18   2.80000000000000E-01   2.80000000000000E-01   0.00000000000000E+00   0.00000000000000E+00
      2.47530404475625E-11   7.33932955397648E-15   2.47603797771165E-11   1.71623812888492E-17   8.00000000000000E-02
      8.00000000000000E-02   0.00000000000000E+00   0.00000000000000E+00   0.00000000000000E+00   0.00000000000000E+00
      0.00000000000000E+00  -4.51638535090428E-18
      2.20000000000000E-01
      0.00000000000000E+00   0.00000000000000E+00   0.00000000000000E+00   0.00000000000000E+00  -1.44674416390486E-13
     -2.35674589433735E-11  -2.37121333597640E-11  -1.03602102892333E-17   8.80000000000000E-02   8.80000000000000E-02
      0.00000000000000E+00   0.00000000000000E+00   0.00000000000000E+00   0.00000000000000E+00   0.00000000000000E+00
     -1.19392256091838E-18   2.80000000000000E-01   2.80000000000000E-01   0.00000000000000E+00   0.00000000000000E+00
      2.37048123153512E-11   7.32104441279816E-15   2.37121333597640E-11   1.71196319596224E-17   8.00000000000000E-02
      8.00000000000000E-02   0.00000000000000E+00   0.00000000000000E+00   0.00000000000000E+00   0.00000000000000E+00
      0.00000000000000E+00  -5.56549910947070E-18
      2.30000000000000E-01
      0.00000000000000E+00   0.00000000000000E+00   0.00000000000000E+00   0.00000000000000E+00  -1.45831878136458E-13
     -2.25937252707853E-11  -2.27395571489217E-11  -1.04049789756722E-17   9.20000000000000E-02   9.20000000000000E-02
      0.00000000000000E+00   0.00000000000000E+00   0.00000000000000E+00   0.00000000000000E+00   0.00000000000000E+00
     -5.72683073579728E-20   2.80000000000000E-01   2.80000000000000E-01   0.00000000000000E+00   0.00000000000000E+00
      2.27322553124807E-11   7.30183644106125E-15   2.27395571489218E-11   1.70768803950324E-17   8.00000000000000E-02
      8.00000000000000E-02   0.00000000000000E+00   0.00000000000000E+00   0.00000000000000E+00   0.00000000000000E+00
      0.00000000000000E+00  -6.61463311200229E-18
      2.40000000000000E-01
      0.00000000000000E+00   0.00000000000000E+00   0.00000000000000E+00   0.00000000000000E+00  -1.46992890604989E-13
     -2.16909938116990E-11  -2.18379867023040E-11  -1.04497058464667E-17   9.60000000000000E-02   9.60000000000000E-02
      0.00000000000000E+00   0.00000000000000E+00   0.00000000000000E+00   0.00000000000000E+00   0.00000000000000E+00
      1.07936618212606E-18   2.80000000000000E-01   2.80000000000000E-01   0.00000000000000E+00   0.00000000000000E+00
      2.18307049242336E-11   7.28177807038655E-15   2.18379867023040E-11   1.70341265325276E-17   8.00000000000000E-02
      8.00000000000000E-02   0.00000000000000E+00   0.00000000000000E+00   0.00000000000000E+00   0.00000000000000E+00
      0.00000000000000E+00  -7.66378686818698E-18
      2.50000000000000E-01
      0.00000000000000E+00   0.00000000000000E+00   0.00000000000000E+00   0.00000000000000E+00  -1.48157419109774E-13
     -2.08548890022381E-11  -2.10030464213479E-11  -1.04943917995353E-17   1.00000000000000E-01   1.00000000000000E-01
      0.00000000000000E+00   0.00000000000000E+00   0.00000000000000E+00   0.00000000000000E+00   0.00000000000000E+00
      2.21598138772699E-18   2.80000000000000E-01   2.80000000000000E-01   0.00000000000000E+00   0.00000000000000E+00
      2.09957854847416E-11   7.26093660632775E-15   2.10030464213479E-11   1.69913703107640E-17   8.00000000000000E-02
      8.00000000000000E-02   0.00000000000000E+00   0.00000000000000E+00   0.00000000000000E+00   0.00000000000000E+00
      0.00000000000000E+00  -8.71295989895575E-18
      2.60000000000000E-01
      0.00000000000000E+00   0.00000000000000E+00   0.00000000000000E+00   0.00000000000000E+00  -1.49325429108375E-13
     -2.00813092424624E-11  -2.02306346715708E-11  -1.05390377119083E-17   1.04000000000000E-01   1.04000000000000E-01
      0.00000000000000E+00   0.00000000000000E+00   0.00000000000000E+00   0.00000000000000E+00   0.00000000000000E+00
      3.35257777861198E-18   2.80000000000000E-01   2.80000000000000E-01   0.00000000000000E+00   0.00000000000000E+00
      2.02233952974399E-11   7.23937413090980E-15   2.02306346715708E-11   1.69486116694543E-17   8.00000000000000E-02
      8.00000000000000E-02   0.00000000000000E+00   0.00000000000000E+00   0.00000000000000E+00   0.00000000000000E+00
      0.00000000000000E+00  -9.76215173615793E-18
      2.70000000000000E-01
      0.00000000000000E+00   0.00000000000000E+00   0.00000000000000E+00   0.00000000000000E+00  -1.50496886210132E-13
     -1.93664126376360E-11  -1.95169095238461E-11  -1.05836444402256E-17   1.08000000000000E-01   1.08000000000000E-01
      0.00000000000000E+00   0.00000000000000E+00   0.00000000000000E+00   0.00000000000000E+00   0.00000000000000E+00
      4.48915581324617E-18   2.80000000000000E-01   2.80000000000000E-01   0.00000000000000E+00   0.00000000000000E+00
      1.95096923756699E-11   7.21714817616160E-15   1.95169095238461E-11   1.69058505492262E-17   8.00000000000000E-02
      8.00000000000000E-02   0.00000000000000E+00   0.00000000000000E+00   0.00000000000000E+00   0.00000000000000E+00
      0.00000000000000E+00  -1.08113619222468E-17
      2.80000000000000E-01
      0.00000000000000E+00   0.00000000000000E+00   0.00000000000000E+00   0.00000000000000E+00  -1.51671756183672E-13
     -1.87066033517277E-11  -1.88582751079114E-11  -1.06282128212220E-17   1.12000000000000E-01   1.12000000000000E-01
      0.00000000000000E+00   0.00000000000000E+00   0.00000000000000E+00   0.00000000000000E+00   0.00000000000000E+00
      5.62571593970595E-18   2.80000000000000E-01   2.80000000000000E-01   0.00000000000000E+00   0.00000000000000E+00
      1.88510807961403E-11   7.19431177111627E-15   1.88582751079114E-11   1.68630868914915E-17   8.00000000000000E-02
      8.00000000000000E-02   0.00000000000000E+00   0.00000000000000E+00   0.00000000000000E+00   0.00000000000000E+00
      0.00000000000000E+00  -1.18605900099754E-17
      2.90000000000000E-01
      0.00000000000000E+00   0.00000000000000E+00   0.00000000000000E+00   0.00000000000000E+00  -1.52850004964040E-13
     -1.80985185668402E-11  -1.82513685718042E-11  -1.06727436722028E-17   1.16000000000000E-01   1.16000000000000E-01
      0.00000000000000E+00   0.00000000000000E+00   0.00000000000000E+00   0.00000000000000E+00   0.00000000000000E+00
      6.76225859598214E-18   2.80000000000000E-01   2.80000000000000E-01   0.00000000000000E+00   0.00000000000000E+00
      1.82441976577408E-11   7.17091406340663E-15   1.82513685718042E-11   1.68203206383220E-17   8.00000000000000E-02
      8.00000000000000E-02   0.00000000000000E+00   0.00000000000000E+00   0.00000000000000E+00   0.00000000000000E+00
      0.00000000000000E+00  -1.29098355621014E-17
      3.00000000000000E-01
      0.00000000000000E+00   0.00000000000000E+00   0.00000000000000E+00   0.00000000000000E+00  -1.54031598659483E-13
     -1.75390160397213E-11  -1.76930476383808E-11  -1.07172377915077E-17   1.20000000000000E-01   1.20000000000000E-01
      0.00000000000000E+00   0.00000000000000E+00   0.00000000000000E+00   0.00000000000000E+00   0.00000000000000E+00
      7.89878421027331E-18   2.80000000000000E-01   2.80000000000000E-01   0.00000000000000E+00   0.00000000000000E+00
      1.76859006380404E-11   7.14700034036697E-15   1.76930476383808E-11   1.67775517323353E-17   8.00000000000000E-02
      8.00000000000000E-02   0.00000000000000E+00   0.00000000000000E+00   0.00000000000000E+00   0.00000000000000E+00
      0.00000000000000E+00  -1.39590981511009E-17
      3.10000000000000E-01
      0.00000000000000E+00   0.00000000000000E+00   0.00000000000000E+00   0.00000000000000E+00  -1.55216503557907E-13
     -1.70251622486139E-11  -1.71803787521718E-11  -1.07616959589641E-17   1.24000000000000E-01   1.24000000000000E-01
      0.00000000000000E+00   0.00000000000000E+00   0.00000000000000E+00   0.00000000000000E+00   0.00000000000000E+00
      9.03529320126978E-18   2.80000000000000E-01   2.80000000000000E-01   0.00000000000000E+00   0.00000000000000E+00
      1.71732561396731E-11   7.12261249861574E-15   1.71803787521718E-11   1.67347801165862E-17   8.00000000000000E-02
      8.00000000000000E-02   0.00000000000000E+00   0.00000000000000E+00   0.00000000000000E+00   0.00000000000000E+00
      0.00000000000000E+00  -1.50083773588918E-17
      3.20000000000000E-01
      0.00000000000000E+00   0.00000000000000E+00   0.00000000000000E+00   0.00000000000000E+00  -1.56404686133036E-13
     -1.65542211218083E-11  -1.67106258079414E-11  -1.08061189363304E-17   1.28000000000000E-01   1.28000000000000E-01
      0.00000000000000E+00   0.00000000000000E+00   0.00000000000000E+00   0.00000000000000E+00   0.00000000000000E+00
      1.01717859784289E-17   2.80000000000000E-01   2.80000000000000E-01   0.00000000000000E+00   0.00000000000000E+00
      1.67035280187544E-11   7.09778918700242E-15   1.67106258079414E-11   1.66920057344658E-17   8.00000000000000E-02
      8.00000000000000E-02   0.00000000000000E+00   0.00000000000000E+00   0.00000000000000E+00   0.00000000000000E+00
      0.00000000000000E+00  -1.60576727765643E-17
      3.30000000000000E-01
      0.00000000000000E+00   0.00000000000000E+00   0.00000000000000E+00   0.00000000000000E+00  -1.57596113050283E-13
     -1.61236433404005E-11  -1.62812394534508E-11  -1.08505074677284E-17   1.32000000000000E-01   1.32000000000000E-01
      0.00000000000000E+00   0.00000000000000E+00   0.00000000000000E+00   0.00000000000000E+00   0.00000000000000E+00
      1.13082629422415E-17   2.80000000000000E-01   2.80000000000000E-01   0.00000000000000E+00   0.00000000000000E+00
      1.62741668874472E-11   7.07256600354096E-15   1.62812394534508E-11   1.66492285296067E-17   8.00000000000000E-02
      8.00000000000000E-02   0.00000000000000E+00   0.00000000000000E+00   0.00000000000000E+00   0.00000000000000E+00
      0.00000000000000E+00  -1.71069840041198E-17
      3.40000000000000E-01
      0.00000000000000E+00   0.00000000000000E+00   0.00000000000000E+00   0.00000000000000E+00  -1.58790751172369E-13
     -1.57310562075784E-11  -1.58898469587507E-11  -1.08948622800666E-17   1.36000000000000E-01   1.36000000000000E-01
      0.00000000000000E+00   0.00000000000000E+00   0.00000000000000E+00   0.00000000000000E+00   0.00000000000000E+00
      1.24447244844908E-17   2.80000000000000E-01   2.80000000000000E-01   0.00000000000000E+00   0.00000000000000E+00
      1.58827999828304E-11   7.04697592033219E-15   1.58898469587507E-11   1.66064484457934E-17   8.00000000000000E-02
      8.00000000000000E-02   0.00000000000000E+00   0.00000000000000E+00   0.00000000000000E+00   0.00000000000000E+00
      0.00000000000000E+00  -1.81563106502176E-17
      3.50000000000000E-01
      0.00000000000000E+00   0.00000000000000E+00   0.00000000000000E+00   0.00000000000000E+00  -1.59988567564697E-13
     -1.53742540760405E-11  -1.55342426436052E-11  -1.09391840834526E-17   1.40000000000000E-01   1.40000000000000E-01
      0.00000000000000E+00   0.00000000000000E+00   0.00000000000000E+00   0.00000000000000E+00   0.00000000000000E+00
      1.35811709885031E-17   2.80000000000000E-01   2.80000000000000E-01   0.00000000000000E+00   0.00000000000000E+00
      1.55272215943004E-11   7.02104930485871E-15   1.55342426436052E-11   1.65636654268784E-17   8.00000000000000E-02
      8.00000000000000E-02   0.00000000000000E+00   0.00000000000000E+00   0.00000000000000E+00   0.00000000000000E+00
      0.00000000000000E+00  -1.92056523319289E-17
      3.60000000000000E-01
      0.00000000000000E+00   0.00000000000000E+00   0.00000000000000E+00   0.00000000000000E+00  -1.61189529500504E-13
     -1.50511893264458E-11  -1.52123788559463E-11  -1.09834735715966E-17   1.44000000000000E-01   1.44000000000000E-01
      0.00000000000000E+00   0.00000000000000E+00   0.00000000000000E+00   0.00000000000000E+00   0.00000000000000E+00
      1.47176028293911E-17   2.80000000000000E-01   2.80000000000000E-01   0.00000000000000E+00   0.00000000000000E+00
      1.52053840418700E-11   6.99481407626664E-15   1.52123788559463E-11   1.65208794167026E-17   8.00000000000000E-02
      8.00000000000000E-02   0.00000000000000E+00   0.00000000000000E+00   0.00000000000000E+00   0.00000000000000E+00
      0.00000000000000E+00  -2.02550086744971E-17
      3.70000000000000E-01
      0.00000000000000E+00   0.00000000000000E+00   0.00000000000000E+00   0.00000000000000E+00  -1.62393604465807E-13