DF-ISE text

Info {
  version   = 1.0
  type      = xyplot
  datasets  = [
    "time"
    "source OuterVoltage" "source InnerVoltage" "source QuasiFermiPotential" "source DisplacementCurrent" "source eCurrent"
    "source hCurrent" "source TotalCurrent" "source Charge" "topGate OuterVoltage" "topGate InnerVoltage"
    "topGate QuasiFermiPotential" "topGate DisplacementCurrent" "topGate eCurrent" "topGate hCurrent" "topGate TotalCurrent"
    "topGate Charge" "drain OuterVoltage" "drain InnerVoltage" "drain QuasiFermiPotential" "drain DisplacementCurrent"
    "drain eCurrent" "drain hCurrent" "drain TotalCurrent" "drain Charge" "bottomGate OuterVoltage"
    "bottomGate InnerVoltage" "bottomGate QuasiFermiPotential" "bottomGate DisplacementCurrent" "bottomGate eCurrent" "bottomGate hCurrent"
    "bottomGate TotalCurrent" "bottomGate Charge" ]
  functions = [
    Time
    OuterVoltage InnerVoltage QuasiFermiPotential DisplacementCurrent eCurrent
    hCurrent TotalCurrent Charge OuterVoltage InnerVoltage
    QuasiFermiPotential DisplacementCurrent eCurrent hCurrent TotalCurrent
    Charge OuterVoltage InnerVoltage QuasiFermiPotential DisplacementCurrent
    eCurrent hCurrent TotalCurrent Charge OuterVoltage
    InnerVoltage QuasiFermiPotential DisplacementCurrent eCurrent hCurrent
    TotalCurrent Charge ]
}

Data {
      1.00000000000000E-02
      0.00000000000000E+00   0.00000000000000E+00   0.00000000000000E+00   0.00000000000000E+00  -1.70271665317693E-13
     -5.47186103094147E-11  -5.48888819747324E-11  -1.13146660977921E-17   4.00000000000000E-03   4.00000000000000E-03
      0.00000000000000E+00   0.00000000000000E+00   0.00000000000000E+00   0.00000000000000E+00   0.00000000000000E+00
     -6.93342921401388E-17   2.50000000000000E-01   2.50000000000000E-01   0.00000000000000E+00   0.00000000000000E+00
      5.48825219705802E-11   6.36000415221501E-15   5.48888819747324E-11   1.55572755234358E-17   2.50000000000000E-01
      2.50000000000000E-01   0.00000000000000E+00   0.00000000000000E+00   0.00000000000000E+00   0.00000000000000E+00
      0.00000000000000E+00   6.50916827144950E-17
      2.00000000000000E-02
      0.00000000000000E+00   0.00000000000000E+00   0.00000000000000E+00   0.00000000000000E+00  -1.71499436481847E-13
     -5.03591310399101E-11  -5.05306304763919E-11  -1.13587067930776E-17   8.00000000000000E-03   8.00000000000000E-03
      0.00000000000000E+00   0.00000000000000E+00   0.00000000000000E+00   0.00000000000000E+00   0.00000000000000E+00
     -6.81979403900848E-17   2.50000000000000E-01   2.50000000000000E-01   0.00000000000000E+00   0.00000000000000E+00
      5.05242994907141E-11   6.33098567779296E-15   5.05306304763919E-11   1.55144010277610E-17   2.50000000000000E-01
      2.50000000000000E-01   0.00000000000000E+00   0.00000000000000E+00   0.00000000000000E+00   0.00000000000000E+00
      0.00000000000000E+00   6.40422461554013E-17
      3.00000000000000E-02
      0.00000000000000E+00   0.00000000000000E+00   0.00000000000000E+00   0.00000000000000E+00  -1.72729925154228E-13
     -4.63106511807468E-11  -4.64833811059010E-11  -1.14027210142698E-17   1.20000000000000E-02   1.20000000000000E-02
      0.00000000000000E+00   0.00000000000000E+00   0.00000000000000E+00   0.00000000000000E+00   0.00000000000000E+00
     -6.70615996548846E-17   2.50000000000000E-01   2.50000000000000E-01   0.00000000000000E+00   0.00000000000000E+00
      4.64770791608395E-11   6.30194506152165E-15   4.64833811059010E-11   1.54715220772277E-17   2.50000000000000E-01
      2.50000000000000E-01   0.00000000000000E+00   0.00000000000000E+00   0.00000000000000E+00   0.00000000000000E+00
      0.00000000000000E+00   6.29927985919267E-17
      4.00000000000000E-02
      0.00000000000000E+00   0.00000000000000E+00   0.00000000000000E+00   0.00000000000000E+00  -1.73963113840381E-13
     -4.25540262039521E-11  -4.27279893177924E-11  -1.14467093051904E-17   1.60000000000000E-02   1.60000000000000E-02
      0.00000000000000E+00   0.00000000000000E+00   0.00000000000000E+00   0.00000000000000E+00   0.00000000000000E+00
     -6.59252696217577E-17   2.50000000000000E-01   2.50000000000000E-01   0.00000000000000E+00   0.00000000000000E+00
      4.27217164319380E-11   6.27288585439328E-15   4.27279893177924E-11   1.54286385909681E-17   2.50000000000000E-01
      2.50000000000000E-01   0.00000000000000E+00   0.00000000000000E+00   0.00000000000000E+00   0.00000000000000E+00
      0.00000000000000E+00   6.19433403359800E-17
      5.00000000000000E-02
      0.00000000000000E+00   0.00000000000000E+00   0.00000000000000E+00   0.00000000000000E+00  -1.75198984100591E-13
     -3.90710756824488E-11  -3.92462746665494E-11  -1.14906721972564E-17   2.00000000000000E-02   2.00000000000000E-02
      0.00000000000000E+00   0.00000000000000E+00   0.00000000000000E+00   0.00000000000000E+00   0.00000000000000E+00
     -6.47889499837486E-17   2.50000000000000E-01   2.50000000000000E-01   0.00000000000000E+00   0.00000000000000E+00
      3.92400308552043E-11   6.24381134525516E-15   3.92462746665495E-11   1.53857504872883E-17   2.50000000000000E-01
      2.50000000000000E-01   0.00000000000000E+00   0.00000000000000E+00   0.00000000000000E+00   0.00000000000000E+00
      0.00000000000000E+00   6.08938716937166E-17
      6.00000000000000E-02
      0.00000000000000E+00   0.00000000000000E+00   0.00000000000000E+00   0.00000000000000E+00  -1.76437516663739E-13
     -3.58445475200850E-11  -3.60209850367487E-11  -1.15346102097787E-17   2.40000000000000E-02   2.40000000000000E-02
      0.00000000000000E+00   0.00000000000000E+00   0.00000000000000E+00   0.00000000000000E+00   0.00000000000000E+00
     -6.36526404395371E-17   2.50000000000000E-01   2.50000000000000E-01   0.00000000000000E+00   0.00000000000000E+00
      3.60147703121735E-11   6.21472457518505E-15   3.60209850367487E-11   1.53428576835936E-17   2.50000000000000E-01
      2.50000000000000E-01   0.00000000000000E+00   0.00000000000000E+00   0.00000000000000E+00   0.00000000000000E+00
      0.00000000000000E+00   5.98443929657223E-17
      7.00000000000000E-02
      0.00000000000000E+00   0.00000000000000E+00   0.00000000000000E+00   0.00000000000000E+00  -1.77678691530671E-13
     -3.28580829025926E-11  -3.30357615941233E-11  -1.15785238502549E-17   2.80000000000000E-02   2.80000000000000E-02
      0.00000000000000E+00   0.00000000000000E+00   0.00000000000000E+00   0.00000000000000E+00   0.00000000000000E+00
     -6.25163406932543E-17   2.50000000000000E-01   2.50000000000000E-01   0.00000000000000E+00   0.00000000000000E+00
      3.30295759657497E-11   6.18562837359661E-15   3.30357615941233E-11   1.52999600963171E-17   2.50000000000000E-01
      2.50000000000000E-01   0.00000000000000E+00   0.00000000000000E+00   0.00000000000000E+00   0.00000000000000E+00
      0.00000000000000E+00   5.87949044471920E-17
      8.00000000000000E-02
      0.00000000000000E+00   0.00000000000000E+00   0.00000000000000E+00   0.00000000000000E+00  -1.78922488067876E-13
     -3.00961819755390E-11  -3.02751044636069E-11  -1.16224136146532E-17   3.20000000000000E-02   3.20000000000000E-02
      0.00000000000000E+00   0.00000000000000E+00   0.00000000000000E+00   0.00000000000000E+00   0.00000000000000E+00
     -6.13800504543027E-17   2.50000000000000E-01   2.50000000000000E-01   0.00000000000000E+00   0.00000000000000E+00
      3.02689479382756E-11   6.15652533133833E-15   3.02751044636069E-11   1.52570576408514E-17   2.50000000000000E-01
      2.50000000000000E-01   0.00000000000000E+00   0.00000000000000E+00   0.00000000000000E+00   0.00000000000000E+00
      0.00000000000000E+00   5.77454064281045E-17
      9.00000000000000E-02
      0.00000000000000E+00   0.00000000000000E+00   0.00000000000000E+00   0.00000000000000E+00  -1.80168885092532E-13
     -2.75441702553135E-11  -2.77243391404061E-11  -1.16662799876912E-17   3.60000000000000E-02   3.60000000000000E-02
      0.00000000000000E+00   0.00000000000000E+00   0.00000000000000E+00   0.00000000000000E+00   0.00000000000000E+00
     -6.02437694371821E-17   2.50000000000000E-01   2.50000000000000E-01   0.00000000000000E+00   0.00000000000000E+00
      2.77182117225033E-11   6.12741790271158E-15   2.77243391404061E-11   1.52141502314809E-17   2.50000000000000E-01
      2.50000000000000E-01   0.00000000000000E+00   0.00000000000000E+00   0.00000000000000E+00   0.00000000000000E+00
      0.00000000000000E+00   5.66958991933924E-17
      1.00000000000000E-01
      0.00000000000000E+00   0.00000000000000E+00   0.00000000000000E+00   0.00000000000000E+00  -1.81417860949526E-13
     -2.51881657783646E-11  -2.53695836393141E-11  -1.17101234431067E-17   4.00000000000000E-02   4.00000000000000E-02
      0.00000000000000E+00   0.00000000000000E+00   0.00000000000000E+00   0.00000000000000E+00   0.00000000000000E+00
     -5.91074973613188E-17   2.50000000000000E-01   2.50000000000000E-01   0.00000000000000E+00   0.00000000000000E+00
      2.53634853309811E-11   6.09830833304536E-15   2.53695836393141E-11   1.51712377813174E-17   2.50000000000000E-01
      2.50000000000000E-01   0.00000000000000E+00   0.00000000000000E+00   0.00000000000000E+00   0.00000000000000E+00
      0.00000000000000E+00   5.56463830231081E-17
      1.10000000000000E-01
      0.00000000000000E+00   0.00000000000000E+00   0.00000000000000E+00   0.00000000000000E+00  -1.82669393581236E-13
     -2.30150469941268E-11  -2.31977163877080E-11  -1.17539444439221E-17   4.40000000000000E-02   4.40000000000000E-02
      0.00000000000000E+00   0.00000000000000E+00   0.00000000000000E+00   0.00000000000000E+00   0.00000000000000E+00
     -5.79712339509006E-17   2.50000000000000E-01   2.50000000000000E-01   0.00000000000000E+00   0.00000000000000E+00
      2.31916471889901E-11   6.06919871794612E-15   2.31977163877081E-11   1.51283202022366E-17   2.50000000000000E-01
      2.50000000000000E-01   0.00000000000000E+00   0.00000000000000E+00   0.00000000000000E+00   0.00000000000000E+00
      0.00000000000000E+00   5.45968581925860E-17
      1.20000000000000E-01
      0.00000000000000E+00   0.00000000000000E+00   0.00000000000000E+00   0.00000000000000E+00  -1.83923460590779E-13
     -2.10124214061634E-11  -2.11963448667542E-11  -1.17977434427028E-17   4.80000000000000E-02   4.80000000000000E-02
      0.00000000000000E+00   0.00000000000000E+00   0.00000000000000E+00   0.00000000000000E+00   0.00000000000000E+00
     -5.68349789347141E-17   2.50000000000000E-01   2.50000000000000E-01   0.00000000000000E+00   0.00000000000000E+00
      2.11903047757473E-11   6.04009100690758E-15   2.11963448667542E-11   1.50853974048163E-17   2.50000000000000E-01
      2.50000000000000E-01   0.00000000000000E+00   0.00000000000000E+00   0.00000000000000E+00   0.00000000000000E+00
      0.00000000000000E+00   5.35473249726006E-17
      1.30000000000000E-01
      0.00000000000000E+00   0.00000000000000E+00   0.00000000000000E+00   0.00000000000000E+00  -1.85180039299231E-13
     -1.91685949658420E-11  -1.93537750051413E-11  -1.18415208818090E-17   5.20000000000000E-02   5.20000000000000E-02
      0.00000000000000E+00   0.00000000000000E+00   0.00000000000000E+00   0.00000000000000E+00   0.00000000000000E+00
     -5.56987320459879E-17   2.50000000000000E-01   2.50000000000000E-01   0.00000000000000E+00   0.00000000000000E+00
      1.93477640181159E-11   6.01098702539525E-15   1.93537750051413E-11   1.50424692982758E-17   2.50000000000000E-01
      2.50000000000000E-01   0.00000000000000E+00   0.00000000000000E+00   0.00000000000000E+00   0.00000000000000E+00
      0.00000000000000E+00   5.24977836295212E-17
      1.40000000000000E-01
      0.00000000000000E+00   0.00000000000000E+00   0.00000000000000E+00   0.00000000000000E+00  -1.86439106797382E-13
     -1.74725422222311E-11  -1.76589813290285E-11  -1.18852771936411E-17   5.60000000000000E-02   5.60000000000000E-02
      0.00000000000000E+00   0.00000000000000E+00   0.00000000000000E+00   0.00000000000000E+00   0.00000000000000E+00
     -5.45624930222377E-17   2.50000000000000E-01   2.50000000000000E-01   0.00000000000000E+00   0.00000000000000E+00
      1.76529994405722E-11   5.98188845631947E-15   1.76589813290285E-11   1.49995357904160E-17   2.50000000000000E-01
      2.50000000000000E-01   0.00000000000000E+00   0.00000000000000E+00   0.00000000000000E+00   0.00000000000000E+00
      0.00000000000000E+00   5.14482344254628E-17
      1.50000000000000E-01
      0.00000000000000E+00   0.00000000000000E+00   0.00000000000000E+00   0.00000000000000E+00  -1.87700639992592E-13
     -1.59138772315304E-11  -1.61015778715230E-11  -1.19290128008792E-17   6.00000000000000E-02   6.00000000000000E-02
      0.00000000000000E+00   0.00000000000000E+00   0.00000000000000E+00   0.00000000000000E+00   0.00000000000000E+00
     -5.34262616051162E-17   2.50000000000000E-01   2.50000000000000E-01   0.00000000000000E+00   0.00000000000000E+00
      1.60956250746351E-11   5.95279688791385E-15   1.61015778715230E-11   1.49565967875613E-17   2.50000000000000E-01
      2.50000000000000E-01   0.00000000000000E+00   0.00000000000000E+00   0.00000000000000E+00   0.00000000000000E+00
      0.00000000000000E+00   5.03986776184341E-17
      1.60000000000000E-01
      0.00000000000000E+00   0.00000000000000E+00   0.00000000000000E+00   0.00000000000000E+00  -1.88964615651071E-13
     -1.44828252285571E-11  -1.46717898442082E-11  -1.19727281167173E-17   6.40000000000000E-02   6.40000000000000E-02
      0.00000000000000E+00   0.00000000000000E+00   0.00000000000000E+00   0.00000000000000E+00   0.00000000000000E+00
     -5.22900375402658E-17   2.50000000000000E-01   2.50000000000000E-01   0.00000000000000E+00   0.00000000000000E+00
      1.46658661304045E-11   5.92371380366592E-15   1.46717898442082E-11   1.49136521945009E-17   2.50000000000000E-01
      2.50000000000000E-01   0.00000000000000E+00   0.00000000000000E+00   0.00000000000000E+00   0.00000000000000E+00
      0.00000000000000E+00   4.93491134624822E-17
      1.70000000000000E-01
      0.00000000000000E+00   0.00000000000000E+00   0.00000000000000E+00   0.00000000000000E+00  -1.90231010436090E-13
     -1.31701950623912E-11  -1.33604260728272E-11  -1.20164235450908E-17   6.80000000000000E-02   6.80000000000000E-02
      0.00000000000000E+00   0.00000000000000E+00   0.00000000000000E+00   0.00000000000000E+00   0.00000000000000E+00
     -5.11538205771751E-17   2.50000000000000E-01   2.50000000000000E-01   0.00000000000000E+00   0.00000000000000E+00
      1.33545314322541E-11   5.89464057317350E-15   1.33604260728272E-11   1.48707019144322E-17   2.50000000000000E-01
      2.50000000000000E-01   0.00000000000000E+00   0.00000000000000E+00   0.00000000000000E+00   0.00000000000000E+00
      0.00000000000000E+00   4.82995422078338E-17
      1.80000000000000E-01
      0.00000000000000E+00   0.00000000000000E+00   0.00000000000000E+00   0.00000000000000E+00  -1.91499800942496E-13
     -1.19673523976722E-11  -1.21588521986147E-11  -1.20600994808992E-17   7.20000000000000E-02   7.20000000000000E-02
      0.00000000000000E+00   0.00000000000000E+00   0.00000000000000E+00   0.00000000000000E+00   0.00000000000000E+00
     -5.00176104690379E-17   2.50000000000000E-01   2.50000000000000E-01   0.00000000000000E+00   0.00000000000000E+00
      1.21529866201055E-11   5.86557850922755E-15   1.21588521986147E-11   1.48277458489029E-17   2.50000000000000E-01
      2.50000000000000E-01   0.00000000000000E+00   0.00000000000000E+00   0.00000000000000E+00   0.00000000000000E+00
      0.00000000000000E+00   4.72499641010341E-17
      1.90000000000000E-01
      0.00000000000000E+00   0.00000000000000E+00   0.00000000000000E+00   0.00000000000000E+00  -1.92770963727770E-13
     -1.08661936821707E-11  -1.10589646458984E-11  -1.21037563102225E-17   7.60000000000000E-02   7.60000000000000E-02
      0.00000000000000E+00   0.00000000000000E+00   0.00000000000000E+00   0.00000000000000E+00   0.00000000000000E+00
     -4.88814069726153E-17   2.50000000000000E-01   2.50000000000000E-01   0.00000000000000E+00   0.00000000000000E+00
      1.10531281170692E-11   5.83652882923427E-15   1.10589646458984E-11   1.47847838977552E-17   2.50000000000000E-01
      2.50000000000000E-01   0.00000000000000E+00   0.00000000000000E+00   0.00000000000000E+00   0.00000000000000E+00
      0.00000000000000E+00   4.62003793850827E-17
      2.00000000000000E-01
      0.00000000000000E+00   0.00000000000000E+00   0.00000000000000E+00   0.00000000000000E+00  -1.94044475340057E-13
     -9.85912088091602E-12  -1.00531653562561E-11  -1.21473944105334E-17   8.00000000000000E-02   8.00000000000000E-02
      0.00000000000000E+00   0.00000000000000E+00   0.00000000000000E+00   0.00000000000000E+00   0.00000000000000E+00
     -4.77452098481012E-17   2.50000000000000E-01   2.50000000000000E-01   0.00000000000000E+00   0.00000000000000E+00
      1.00473578635742E-11   5.80749268192213E-15   1.00531653562561E-11   1.47418159590684E-17   2.50000000000000E-01
      2.50000000000000E-01   0.00000000000000E+00   0.00000000000000E+00   0.00000000000000E+00   0.00000000000000E+00
      0.00000000000000E+00   4.51507882995661E-17
      2.10000000000000E-01
      0.00000000000000E+00   0.00000000000000E+00   0.00000000000000E+00   0.00000000000000E+00  -1.95320312343365E-13
     -8.93901697622545E-12  -9.13433728856882E-12  -1.21910141509029E-17   8.40000000000000E-02   8.40000000000000E-02
      0.00000000000000E+00   0.00000000000000E+00   0.00000000000000E+00   0.00000000000000E+00   0.00000000000000E+00
     -4.66090188589897E-17   2.50000000000000E-01   2.50000000000000E-01   0.00000000000000E+00   0.00000000000000E+00
      9.12855881742972E-12   5.77847113910023E-15   9.13433728856882E-12   1.46988419291031E-17   2.50000000000000E-01
      2.50000000000000E-01   0.00000000000000E+00   0.00000000000000E+00   0.00000000000000E+00   0.00000000000000E+00
      0.00000000000000E+00   4.41011910807895E-17
      2.20000000000000E-01
      0.00000000000000E+00   0.00000000000000E+00   0.00000000000000E+00   0.00000000000000E+00  -1.96598451340276E-13
     -8.09922223247144E-12  -8.29582068381171E-12  -1.22346158922023E-17   8.80000000000000E-02   8.80000000000000E-02
      0.00000000000000E+00   0.00000000000000E+00   0.00000000000000E+00   0.00000000000000E+00   0.00000000000000E+00
     -4.54728337719456E-17   2.50000000000000E-01   2.50000000000000E-01   0.00000000000000E+00   0.00000000000000E+00
      8.29007121857733E-12   5.74946523438757E-15   8.29582068381172E-12   1.46558617022443E-17   2.50000000000000E-01
      2.50000000000000E-01   0.00000000000000E+00   0.00000000000000E+00   0.00000000000000E+00   0.00000000000000E+00
      0.00000000000000E+00   4.30515879619036E-17
      2.30000000000000E-01
      0.00000000000000E+00   0.00000000000000E+00   0.00000000000000E+00   0.00000000000000E+00  -1.97878868992229E-13
     -7.33351122351622E-12  -7.53139009250845E-12  -1.22781999872988E-17   9.20000000000000E-02   9.20000000000000E-02
      0.00000000000000E+00   0.00000000000000E+00   0.00000000000000E+00   0.00000000000000E+00   0.00000000000000E+00
     -4.43366543566773E-17   2.50000000000000E-01   2.50000000000000E-01   0.00000000000000E+00   0.00000000000000E+00
      7.52566961658765E-12   5.72047592080219E-15   7.53139009250845E-12   1.46128751709447E-17   2.50000000000000E-01
      2.50000000000000E-01   0.00000000000000E+00   0.00000000000000E+00   0.00000000000000E+00   0.00000000000000E+00
      0.00000000000000E+00   4.20019791730314E-17
      2.40000000000000E-01
      0.00000000000000E+00   0.00000000000000E+00   0.00000000000000E+00   0.00000000000000E+00  -1.99161542037842E-13
     -6.63607062033565E-12  -6.83523216237349E-12  -1.23217667812473E-17   9.60000000000000E-02   9.60000000000000E-02
      0.00000000000000E+00   0.00000000000000E+00   0.00000000000000E+00   0.00000000000000E+00   0.00000000000000E+00
     -4.32004803858117E-17   2.50000000000000E-01   2.50000000000000E-01   0.00000000000000E+00   0.00000000000000E+00
      6.82954065825579E-12   5.69150411770970E-15   6.83523216237350E-12   1.45698822256679E-17   2.50000000000000E-01
      2.50000000000000E-01   0.00000000000000E+00   0.00000000000000E+00   0.00000000000000E+00   0.00000000000000E+00
      0.00000000000000E+00   4.09523649413911E-17
      2.50000000000000E-01
      0.00000000000000E+00   0.00000000000000E+00   0.00000000000000E+00   0.00000000000000E+00  -2.00446447309211E-13
     -6.00147773533181E-12  -6.20192418264102E-12  -1.23653166114768E-17   1.00000000000000E-01   1.00000000000000E-01
      0.00000000000000E+00   0.00000000000000E+00   0.00000000000000E+00   0.00000000000000E+00   0.00000000000000E+00
     -4.20643116347720E-17   2.50000000000000E-01   2.50000000000000E-01   0.00000000000000E+00   0.00000000000000E+00
      6.19626163194550E-12   5.66255069551721E-15   6.20192418264102E-12   1.45268827548307E-17   2.50000000000000E-01
      2.50000000000000E-01   0.00000000000000E+00   0.00000000000000E+00   0.00000000000000E+00   0.00000000000000E+00
      0.00000000000000E+00   3.99027454914181E-17
      2.60000000000000E-01
      0.00000000000000E+00   0.00000000000000E+00   0.00000000000000E+00   0.00000000000000E+00  -2.01733561746545E-13
     -5.42467981935820E-12  -5.62641338110475E-12  -1.24088498079727E-17   1.04000000000000E-01   1.04000000000000E-01
      0.00000000000000E+00   0.00000000000000E+00   0.00000000000000E+00   0.00000000000000E+00   0.00000000000000E+00
     -4.09281478816568E-17   2.50000000000000E-01   2.50000000000000E-01   0.00000000000000E+00   0.00000000000000E+00
      5.62077976462709E-12   5.63361647765671E-15   5.62641338110475E-12   1.44838766447456E-17   2.50000000000000E-01
      2.50000000000000E-01   0.00000000000000E+00   0.00000000000000E+00   0.00000000000000E+00   0.00000000000000E+00
      0.00000000000000E+00   3.88531210448839E-17
      2.70000000000000E-01
      0.00000000000000E+00   0.00000000000000E+00   0.00000000000000E+00   0.00000000000000E+00  -2.03022862411179E-13
     -4.90097410670808E-12  -5.10399696911926E-12  -1.24523666934544E-17   1.08000000000000E-01   1.08000000000000E-01
      0.00000000000000E+00   0.00000000000000E+00   0.00000000000000E+00   0.00000000000000E+00   0.00000000000000E+00
     -3.97919889071219E-17   2.50000000000000E-01   2.50000000000000E-01   0.00000000000000E+00   0.00000000000000E+00
      5.09839226686106E-12   5.60470225820069E-15   5.10399696911927E-12   1.44408637795625E-17   2.50000000000000E-01
      2.50000000000000E-01   0.00000000000000E+00   0.00000000000000E+00   0.00000000000000E+00   0.00000000000000E+00
      0.00000000000000E+00   3.78034918210138E-17
      2.80000000000000E-01
      0.00000000000000E+00   0.00000000000000E+00   0.00000000000000E+00   0.00000000000000E+00  -2.04314326497190E-13
     -4.42598860257946E-12  -4.63030292907665E-12  -1.24958675835480E-17   1.12000000000000E-01   1.12000000000000E-01
      0.00000000000000E+00   0.00000000000000E+00   0.00000000000000E+00   0.00000000000000E+00   0.00000000000000E+00
     -3.86558344942640E-17   2.50000000000000E-01   2.50000000000000E-01   0.00000000000000E+00   0.00000000000000E+00
      4.62472712029237E-12   5.57580878427693E-15   4.63030292907665E-12   1.43978440412094E-17   2.50000000000000E-01
      2.50000000000000E-01   0.00000000000000E+00   0.00000000000000E+00   0.00000000000000E+00   0.00000000000000E+00
      0.00000000000000E+00   3.67538580366026E-17
      2.90000000000000E-01
      0.00000000000000E+00   0.00000000000000E+00   0.00000000000000E+00   0.00000000000000E+00  -2.05607931341694E-13
     -3.99566360698865E-12  -4.20127153833034E-12  -1.25393527869558E-17   1.16000000000000E-01   1.16000000000000E-01
      0.00000000000000E+00   0.00000000000000E+00   0.00000000000000E+00   0.00000000000000E+00   0.00000000000000E+00
     -3.75196844285053E-17   2.50000000000000E-01   2.50000000000000E-01   0.00000000000000E+00   0.00000000000000E+00
      4.19572460154966E-12   5.54693678067851E-15   4.20127153833034E-12   1.43548173093329E-17   2.50000000000000E-01
      2.50000000000000E-01   0.00000000000000E+00   0.00000000000000E+00   0.00000000000000E+00   0.00000000000000E+00
      0.00000000000000E+00   3.57042199061282E-17
      3.00000000000000E-01
      0.00000000000000E+00   0.00000000000000E+00   0.00000000000000E+00   0.00000000000000E+00  -2.06903654433962E-13
     -3.60623396830249E-12  -3.81313762273645E-12  -1.25828226056206E-17   1.20000000000000E-01   1.20000000000000E-01
      0.00000000000000E+00   0.00000000000000E+00   0.00000000000000E+00   0.00000000000000E+00   0.00000000000000E+00
     -3.63835384974814E-17   2.50000000000000E-01   2.50000000000000E-01   0.00000000000000E+00   0.00000000000000E+00
      3.80761953578993E-12   5.51808694653287E-15   3.81313762273646E-12   1.43117834612380E-17   2.50000000000000E-01
      2.50000000000000E-01   0.00000000000000E+00   0.00000000000000E+00   0.00000000000000E+00   0.00000000000000E+00
      0.00000000000000E+00   3.46545776418640E-17
      3.10000000000000E-01
      0.00000000000000E+00   0.00000000000000E+00   0.00000000000000E+00   0.00000000000000E+00  -2.08201473423455E-13
     -3.25421205901854E-12  -3.46241353244199E-12  -1.26262773348862E-17   1.24000000000000E-01   1.24000000000000E-01
      0.00000000000000E+00   0.00000000000000E+00   0.00000000000000E+00   0.00000000000000E+00   0.00000000000000E+00
     -3.52473964909293E-17   2.50000000000000E-01   2.50000000000000E-01   0.00000000000000E+00   0.00000000000000E+00
      3.45692427249850E-12   5.48925994348634E-15   3.46241353244199E-12   1.42687423718263E-17   2.50000000000000E-01
      2.50000000000000E-01   0.00000000000000E+00   0.00000000000000E+00   0.00000000000000E+00   0.00000000000000E+00
      0.00000000000000E+00   3.36049314539891E-17
      3.20000000000000E-01
      0.00000000000000E+00   0.00000000000000E+00   0.00000000000000E+00   0.00000000000000E+00  -2.09501366126929E-13
     -2.93637146584057E-12  -3.14587283196750E-12  -1.26697172636543E-17   1.28000000000000E-01   1.28000000000000E-01
      0.00000000000000E+00   0.00000000000000E+00   0.00000000000000E+00   0.00000000000000E+00   0.00000000000000E+00
     -3.41112582005781E-17   2.50000000000000E-01   2.50000000000000E-01   0.00000000000000E+00   0.00000000000000E+00
      3.14041237554811E-12   5.46045641939156E-15   3.14587283196750E-12   1.42256939135343E-17   2.50000000000000E-01
      2.50000000000000E-01   0.00000000000000E+00   0.00000000000000E+00   0.00000000000000E+00   0.00000000000000E+00
      0.00000000000000E+00   3.25552815506982E-17
      3.30000000000000E-01
      0.00000000000000E+00   0.00000000000000E+00   0.00000000000000E+00   0.00000000000000E+00  -2.10803310534580E-13
     -2.64973138540763E-12  -2.86053469594221E-12  -1.27131426745374E-17   1.32000000000000E-01   1.32000000000000E-01
      0.00000000000000E+00   0.00000000000000E+00   0.00000000000000E+00   0.00000000000000E+00   0.00000000000000E+00
     -3.29751234200406E-17   2.50000000000000E-01   2.50000000000000E-01   0.00000000000000E+00   0.00000000000000E+00
      2.85510301894502E-12   5.43167699719755E-15   2.86053469594222E-12   1.41826379562697E-17   2.50000000000000E-01
      2.50000000000000E-01   0.00000000000000E+00   0.00000000000000E+00   0.00000000000000E+00   0.00000000000000E+00
      0.00000000000000E+00   3.15056281383082E-17
      3.40000000000000E-01
      0.00000000000000E+00   0.00000000000000E+00   0.00000000000000E+00   0.00000000000000E+00  -2.12107284815473E-13
     -2.39154171661747E-12  -2.60364900143294E-12  -1.27565538440071E-17   1.36000000000000E-01   1.36000000000000E-01
      0.00000000000000E+00   0.00000000000000E+00   0.00000000000000E+00   0.00000000000000E+00   0.00000000000000E+00
     -3.18389919447061E-17   2.50000000000000E-01   2.50000000000000E-01   0.00000000000000E+00   0.00000000000000E+00
      2.59824607914748E-12   5.40292228546008E-15   2.60364900143294E-12   1.41395743673475E-17   2.50000000000000E-01
      2.50000000000000E-01   0.00000000000000E+00   0.00000000000000E+00   0.00000000000000E+00   0.00000000000000E+00
      0.00000000000000E+00   3.04559714213657E-17
      3.50000000000000E-01
      0.00000000000000E+00   0.00000000000000E+00   0.00000000000000E+00   0.00000000000000E+00  -2.13413267322136E-13
     -2.15926883988604E-12  -2.37268210720818E-12  -1.27999510425401E-17   1.40000000000000E-01   1.40000000000000E-01
      0.00000000000000E+00   0.00000000000000E+00   0.00000000000000E+00   0.00000000000000E+00   0.00000000000000E+00
     -3.07028635716353E-17   2.50000000000000E-01   2.50000000000000E-01   0.00000000000000E+00   0.00000000000000E+00
      2.36730791433492E-12   5.37419287326173E-15   2.37268210720818E-12   1.40965030114242E-17   2.50000000000000E-01
      2.50000000000000E-01   0.00000000000000E+00   0.00000000000000E+00   0.00000000000000E+00   0.00000000000000E+00
      0.00000000000000E+00   2.94063116027512E-17
      3.60000000000000E-01
      0.00000000000000E+00   0.00000000000000E+00   0.00000000000000E+00   0.00000000000000E+00  -2.14721236594597E-13
     -1.95058207327663E-12  -2.16530330987123E-12  -1.28433345347594E-17   1.44000000000000E-01   1.44000000000000E-01
      0.00000000000000E+00   0.00000000000000E+00   0.00000000000000E+00   0.00000000000000E+00   0.00000000000000E+00
     -2.95667380994555E-17   2.50000000000000E-01   2.50000000000000E-01   0.00000000000000E+00   0.00000000000000E+00
      2.15995782054036E-12   5.34548933087505E-15   2.16530330987123E-12   1.40534237504315E-17   2.50000000000000E-01
      2.50000000000000E-01   0.00000000000000E+00   0.00000000000000E+00   0.00000000000000E+00   0.00000000000000E+00
      0.00000000000000E+00   2.83566488837834E-17
      3.70000000000000E-01
      0.00000000000000E+00   0.00000000000000E+00   0.00000000000000E+00   0.00000000000000E+00  -2.16031171363760E-13