DF-ISE text

Info {
  version   = 1.0
  type      = xyplot
  datasets  = [
    "time"
    "source OuterVoltage" "source InnerVoltage" "source QuasiFermiPotential" "source DisplacementCurrent" "source eCurrent"
    "source hCurrent" "source TotalCurrent" "source Charge" "topGate OuterVoltage" "topGate InnerVoltage"
    "topGate QuasiFermiPotential" "topGate DisplacementCurrent" "topGate eCurrent" "topGate hCurrent" "topGate TotalCurrent"
    "topGate Charge" "drain OuterVoltage" "drain InnerVoltage" "drain QuasiFermiPotential" "drain DisplacementCurrent"
    "drain eCurrent" "drain hCurrent" "drain TotalCurrent" "drain Charge" "bottomGate OuterVoltage"
    "bottomGate InnerVoltage" "bottomGate QuasiFermiPotential" "bottomGate DisplacementCurrent" "bottomGate eCurrent" "bottomGate hCurrent"
    "bottomGate TotalCurrent" "bottomGate Charge" ]
  functions = [
    Time
    OuterVoltage InnerVoltage QuasiFermiPotential DisplacementCurrent eCurrent
    hCurrent TotalCurrent Charge OuterVoltage InnerVoltage
    QuasiFermiPotential DisplacementCurrent eCurrent hCurrent TotalCurrent
    Charge OuterVoltage InnerVoltage QuasiFermiPotential DisplacementCurrent
    eCurrent hCurrent TotalCurrent Charge OuterVoltage
    InnerVoltage QuasiFermiPotential DisplacementCurrent eCurrent hCurrent
    TotalCurrent Charge ]
}

Data {
      1.00000000000000E-02
      0.00000000000000E+00   0.00000000000000E+00   0.00000000000000E+00   0.00000000000000E+00  -1.49259248675337E-13
     -1.59375135145573E-11  -1.60867727632327E-11  -1.05389989813782E-17   4.00000000000000E-03   4.00000000000000E-03
      0.00000000000000E+00   0.00000000000000E+00   0.00000000000000E+00   0.00000000000000E+00   0.00000000000000E+00
     -5.04356543799265E-17   2.00000000000000E-01   2.00000000000000E-01   0.00000000000000E+00   0.00000000000000E+00
      1.60806326969702E-11   6.14006626247642E-15   1.60867727632327E-11   1.52356244667832E-17   1.80000000000000E-01
      1.80000000000000E-01   0.00000000000000E+00   0.00000000000000E+00   0.00000000000000E+00   0.00000000000000E+00
      0.00000000000000E+00   4.57390288945215E-17
      2.00000000000000E-02
      0.00000000000000E+00   0.00000000000000E+00   0.00000000000000E+00   0.00000000000000E+00  -1.50430520481522E-13
     -1.44953461034931E-11  -1.46457766239747E-11  -1.05836057868063E-17   8.00000000000000E-03   8.00000000000000E-03
      0.00000000000000E+00   0.00000000000000E+00   0.00000000000000E+00   0.00000000000000E+00   0.00000000000000E+00
     -4.92990001859718E-17   2.00000000000000E-01   2.00000000000000E-01   0.00000000000000E+00   0.00000000000000E+00
      1.46396656598813E-11   6.11096409338834E-15   1.46457766239747E-11   1.51927113560883E-17   1.80000000000000E-01
      1.80000000000000E-01   0.00000000000000E+00   0.00000000000000E+00   0.00000000000000E+00   0.00000000000000E+00
      0.00000000000000E+00   4.46898946166898E-17
      3.00000000000000E-02
      0.00000000000000E+00   0.00000000000000E+00   0.00000000000000E+00   0.00000000000000E+00  -1.51605171788187E-13
     -1.31719366356151E-11  -1.33235418074033E-11  -1.06281742403089E-17   1.20000000000000E-02   1.20000000000000E-02
      0.00000000000000E+00   0.00000000000000E+00   0.00000000000000E+00   0.00000000000000E+00   0.00000000000000E+00
     -4.81623627578203E-17   2.00000000000000E-01   2.00000000000000E-01   0.00000000000000E+00   0.00000000000000E+00
      1.33174599470105E-11   6.08186039283136E-15   1.33235418074033E-11   1.51497933997464E-17   1.80000000000000E-01
      1.80000000000000E-01   0.00000000000000E+00   0.00000000000000E+00   0.00000000000000E+00   0.00000000000000E+00
      0.00000000000000E+00   4.36407435983829E-17
      4.00000000000000E-02
      0.00000000000000E+00   0.00000000000000E+00   0.00000000000000E+00   0.00000000000000E+00  -1.52783172238871E-13
     -1.19586753476080E-11  -1.21114585198469E-11  -1.06727051594818E-17   1.60000000000000E-02   1.60000000000000E-02
      0.00000000000000E+00   0.00000000000000E+00   0.00000000000000E+00   0.00000000000000E+00   0.00000000000000E+00
     -4.70257416321085E-17   2.00000000000000E-01   2.00000000000000E-01   0.00000000000000E+00   0.00000000000000E+00
      1.21054057625098E-11   6.05275733712088E-15   1.21114585198469E-11   1.51068704908168E-17   1.80000000000000E-01
      1.80000000000000E-01   0.00000000000000E+00   0.00000000000000E+00   0.00000000000000E+00   0.00000000000000E+00
      0.00000000000000E+00   4.25915763007735E-17
      5.00000000000000E-02
      0.00000000000000E+00   0.00000000000000E+00   0.00000000000000E+00   0.00000000000000E+00  -1.53964491267580E-13
     -1.08474785110226E-11  -1.10014430022902E-11  -1.07171993429371E-17   2.00000000000000E-02   2.00000000000000E-02
      0.00000000000000E+00   0.00000000000000E+00   0.00000000000000E+00   0.00000000000000E+00   0.00000000000000E+00
     -4.58891363550944E-17   2.00000000000000E-01   2.00000000000000E-01   0.00000000000000E+00   0.00000000000000E+00
      1.09954193455389E-11   6.02365675125664E-15   1.10014430022902E-11   1.50639425224318E-17   1.80000000000000E-01
      1.80000000000000E-01   0.00000000000000E+00   0.00000000000000E+00   0.00000000000000E+00   0.00000000000000E+00
      0.00000000000000E+00   4.15423931755998E-17
      6.00000000000000E-02
      0.00000000000000E+00   0.00000000000000E+00   0.00000000000000E+00   0.00000000000000E+00  -1.55149098146795E-13
     -9.83076346429199E-12  -9.98591256243878E-12  -1.07616575707577E-17   2.40000000000000E-02   2.40000000000000E-02
      0.00000000000000E+00   0.00000000000000E+00   0.00000000000000E+00   0.00000000000000E+00   0.00000000000000E+00
     -4.47525464823380E-17   2.00000000000000E-01   2.00000000000000E-01   0.00000000000000E+00   0.00000000000000E+00
      9.97991800208895E-12   5.99456034983613E-15   9.98591256243879E-12   1.50210093876266E-17   1.80000000000000E-01
      1.80000000000000E-01   0.00000000000000E+00   0.00000000000000E+00   0.00000000000000E+00   0.00000000000000E+00
      0.00000000000000E+00   4.04931946654692E-17
      7.00000000000000E-02
      0.00000000000000E+00   0.00000000000000E+00   0.00000000000000E+00   0.00000000000000E+00  -1.56336962030836E-13
     -8.90142439475582E-12  -9.05776135678666E-12  -1.08060806049412E-17   2.80000000000000E-02   2.80000000000000E-02
      0.00000000000000E+00   0.00000000000000E+00   0.00000000000000E+00   0.00000000000000E+00   0.00000000000000E+00
     -4.36159715783917E-17   2.00000000000000E-01   2.00000000000000E-01   0.00000000000000E+00   0.00000000000000E+00
      9.05179588703491E-12   5.96546975173972E-15   9.05776135678665E-12   1.49780709791799E-17   1.80000000000000E-01
      1.80000000000000E-01   0.00000000000000E+00   0.00000000000000E+00   0.00000000000000E+00   0.00000000000000E+00
      0.00000000000000E+00   3.94439812041530E-17
      8.00000000000000E-02
      0.00000000000000E+00   0.00000000000000E+00   0.00000000000000E+00   0.00000000000000E+00  -1.57528051994963E-13
     -8.05280886958471E-12  -8.21033692157967E-12  -1.08504691898337E-17   3.20000000000000E-02   3.20000000000000E-02
      0.00000000000000E+00   0.00000000000000E+00   0.00000000000000E+00   0.00000000000000E+00   0.00000000000000E+00
     -4.24794112165014E-17   2.00000000000000E-01   2.00000000000000E-01   0.00000000000000E+00   0.00000000000000E+00
      8.20440053491947E-12   5.93638666021256E-15   8.21033692157968E-12   1.49351271894626E-17   1.80000000000000E-01
      1.80000000000000E-01   0.00000000000000E+00   0.00000000000000E+00   0.00000000000000E+00   0.00000000000000E+00
      0.00000000000000E+00   3.83947532168725E-17
      9.00000000000000E-02
      0.00000000000000E+00   0.00000000000000E+00   0.00000000000000E+00   0.00000000000000E+00  -1.58722337070670E-13
     -7.27869511254167E-12  -7.43741744961234E-12  -1.08948240525534E-17   3.60000000000000E-02   3.60000000000000E-02
      0.00000000000000E+00   0.00000000000000E+00   0.00000000000000E+00   0.00000000000000E+00   0.00000000000000E+00
     -4.13428649783170E-17   2.00000000000000E-01   2.00000000000000E-01   0.00000000000000E+00   0.00000000000000E+00
      7.43151013720419E-12   5.90731240815893E-15   7.43741744961235E-12   1.48921779102948E-17   1.80000000000000E-01
      1.80000000000000E-01   0.00000000000000E+00   0.00000000000000E+00   0.00000000000000E+00   0.00000000000000E+00
      0.00000000000000E+00   3.73455111205756E-17
      1.00000000000000E-01
      0.00000000000000E+00   0.00000000000000E+00   0.00000000000000E+00   0.00000000000000E+00  -1.59919786277574E-13
     -6.57327002501168E-12  -6.73318981128925E-12  -1.09391459034042E-17   4.00000000000000E-02   4.00000000000000E-02
      0.00000000000000E+00   0.00000000000000E+00   0.00000000000000E+00   0.00000000000000E+00   0.00000000000000E+00
     -4.02063324536122E-17   2.00000000000000E-01   2.00000000000000E-01   0.00000000000000E+00   0.00000000000000E+00
      6.72731156295923E-12   5.87824833002178E-15   6.73318981128925E-12   1.48492230328094E-17   1.80000000000000E-01
      1.80000000000000E-01   0.00000000000000E+00   0.00000000000000E+00   0.00000000000000E+00   0.00000000000000E+00
      0.00000000000000E+00   3.62962553242070E-17
      1.10000000000000E-01
      0.00000000000000E+00   0.00000000000000E+00   0.00000000000000E+00   0.00000000000000E+00  -1.61120368652111E-13
     -5.93110794628146E-12  -6.09222831493357E-12  -1.09834354362800E-17   4.40000000000000E-02   4.40000000000000E-02
      0.00000000000000E+00   0.00000000000000E+00   0.00000000000000E+00   0.00000000000000E+00   0.00000000000000E+00
     -3.90698132400124E-17   2.00000000000000E-01   2.00000000000000E-01   0.00000000000000E+00   0.00000000000000E+00
      6.08637911918754E-12   5.84919574603498E-15   6.09222831493358E-12   1.48062624473233E-17   1.80000000000000E-01
      1.80000000000000E-01   0.00000000000000E+00   0.00000000000000E+00   0.00000000000000E+00   0.00000000000000E+00
      0.00000000000000E+00   3.52469862289691E-17
      1.20000000000000E-01
      0.00000000000000E+00   0.00000000000000E+00   0.00000000000000E+00   0.00000000000000E+00  -1.62324053273470E-13
     -5.34715014876421E-12  -5.50947420203768E-12  -1.10276933290592E-17   4.80000000000000E-02   4.80000000000000E-02
      0.00000000000000E+00   0.00000000000000E+00   0.00000000000000E+00   0.00000000000000E+00   0.00000000000000E+00
     -3.79333069427313E-17   2.00000000000000E-01   2.00000000000000E-01   0.00000000000000E+00   0.00000000000000E+00
      5.50365404620816E-12   5.82015582952607E-15   5.50947420203769E-12   1.47632960432136E-17   1.80000000000000E-01
      1.80000000000000E-01   0.00000000000000E+00   0.00000000000000E+00   0.00000000000000E+00   0.00000000000000E+00
      0.00000000000000E+00   3.41977042285770E-17
      1.30000000000000E-01
      0.00000000000000E+00   0.00000000000000E+00   0.00000000000000E+00   0.00000000000000E+00  -1.63530809286928E-13
     -4.81668506321106E-12  -4.98021587249799E-12  -1.10719202439898E-17   5.20000000000000E-02   5.20000000000000E-02
      0.00000000000000E+00   0.00000000000000E+00   0.00000000000000E+00   0.00000000000000E+00   0.00000000000000E+00
     -3.67968131743148E-17   2.00000000000000E-01   2.00000000000000E-01   0.00000000000000E+00   0.00000000000000E+00
      4.97442474275126E-12   5.79112974673110E-15   4.98021587249799E-12   1.47203237087995E-17   1.80000000000000E-01
      1.80000000000000E-01   0.00000000000000E+00   0.00000000000000E+00   0.00000000000000E+00   0.00000000000000E+00
      0.00000000000000E+00   3.31484097095050E-17
      1.40000000000000E-01
      0.00000000000000E+00   0.00000000000000E+00   0.00000000000000E+00   0.00000000000000E+00  -1.64740605924892E-13
     -4.33532922727434E-12  -4.50006983319923E-12  -1.11161168280658E-17   5.60000000000000E-02   5.60000000000000E-02
      0.00000000000000E+00   0.00000000000000E+00   0.00000000000000E+00   0.00000000000000E+00   0.00000000000000E+00
     -3.56603315543920E-17   2.00000000000000E-01   2.00000000000000E-01   0.00000000000000E+00   0.00000000000000E+00
      4.49430771465450E-12   5.76211854472699E-15   4.50006983319923E-12   1.46773453312291E-17   1.80000000000000E-01
      1.80000000000000E-01   0.00000000000000E+00   0.00000000000000E+00   0.00000000000000E+00   0.00000000000000E+00
      0.00000000000000E+00   3.20991030512287E-17
      1.50000000000000E-01
      0.00000000000000E+00   0.00000000000000E+00   0.00000000000000E+00   0.00000000000000E+00  -1.65953412525821E-13
     -3.89900895097757E-12  -4.06496236350339E-12  -1.11602837133943E-17   6.00000000000000E-02   6.00000000000000E-02
      0.00000000000000E+00   0.00000000000000E+00   0.00000000000000E+00   0.00000000000000E+00   0.00000000000000E+00
     -3.45238617094343E-17   2.00000000000000E-01   2.00000000000000E-01   0.00000000000000E+00   0.00000000000000E+00
      4.05922924029702E-12   5.73312320637098E-15   4.06496236350339E-12   1.46343607963703E-17   1.80000000000000E-01
      1.80000000000000E-01   0.00000000000000E+00   0.00000000000000E+00   0.00000000000000E+00   0.00000000000000E+00
      0.00000000000000E+00   3.10497846264584E-17
      1.60000000000000E-01
      0.00000000000000E+00   0.00000000000000E+00   0.00000000000000E+00   0.00000000000000E+00  -1.67169198551336E-13
     -3.50394269137022E-12  -3.67111188992156E-12  -1.12044215175542E-17   6.40000000000000E-02   6.40000000000000E-02
      0.00000000000000E+00   0.00000000000000E+00   0.00000000000000E+00   0.00000000000000E+00   0.00000000000000E+00
     -3.33874032725197E-17   2.00000000000000E-01   2.00000000000000E-01   0.00000000000000E+00   0.00000000000000E+00
      3.66540774516748E-12   5.70414475407445E-15   3.67111188992156E-12   1.45913699887057E-17   1.80000000000000E-01
      1.80000000000000E-01   0.00000000000000E+00   0.00000000000000E+00   0.00000000000000E+00   0.00000000000000E+00
      0.00000000000000E+00   3.00004548013681E-17
      1.70000000000000E-01
      0.00000000000000E+00   0.00000000000000E+00   0.00000000000000E+00   0.00000000000000E+00  -1.68387933601410E-13
     -3.14662412767149E-12  -3.31501206127290E-12  -1.12485308439458E-17   6.80000000000000E-02   6.80000000000000E-02
      0.00000000000000E+00   0.00000000000000E+00   0.00000000000000E+00   0.00000000000000E+00   0.00000000000000E+00
     -3.22509558831041E-17   2.00000000000000E-01   2.00000000000000E-01   0.00000000000000E+00   0.00000000000000E+00
      3.30933687724122E-12   5.67518403168247E-15   3.31501206127291E-12   1.45483727912313E-17   1.80000000000000E-01
      1.80000000000000E-01   0.00000000000000E+00   0.00000000000000E+00   0.00000000000000E+00   0.00000000000000E+00
      0.00000000000000E+00   2.89511139358186E-17
      1.80000000000000E-01
      0.00000000000000E+00   0.00000000000000E+00   0.00000000000000E+00   0.00000000000000E+00  -1.69609587428304E-13
     -2.82380592866625E-12  -2.99341551609455E-12  -1.12926122821331E-17   7.20000000000000E-02   7.20000000000000E-02
      0.00000000000000E+00   0.00000000000000E+00   0.00000000000000E+00   0.00000000000000E+00   0.00000000000000E+00
     -3.11145191867985E-17   2.00000000000000E-01   2.00000000000000E-01   0.00000000000000E+00   0.00000000000000E+00
      2.98776927414166E-12   5.64624195289673E-15   2.99341551609456E-12   1.45053690853575E-17   1.80000000000000E-01
      1.80000000000000E-01   0.00000000000000E+00   0.00000000000000E+00   0.00000000000000E+00   0.00000000000000E+00
      0.00000000000000E+00   2.79017623835741E-17
      1.90000000000000E-01
      0.00000000000000E+00   0.00000000000000E+00   0.00000000000000E+00   0.00000000000000E+00  -1.70834129948779E-13
     -2.53248420171911E-12  -2.70331833166789E-12  -1.13366664081768E-17   7.60000000000000E-02   7.60000000000000E-02
      0.00000000000000E+00   0.00000000000000E+00   0.00000000000000E+00   0.00000000000000E+00   0.00000000000000E+00
     -2.99780928351519E-17   2.00000000000000E-01   2.00000000000000E-01   0.00000000000000E+00   0.00000000000000E+00
      2.69770101238648E-12   5.61731928140719E-15   2.70331833166789E-12   1.44623587508135E-17   1.80000000000000E-01
      1.80000000000000E-01   0.00000000000000E+00   0.00000000000000E+00   0.00000000000000E+00   0.00000000000000E+00
      0.00000000000000E+00   2.68524004925152E-17
      2.00000000000000E-01
      0.00000000000000E+00   0.00000000000000E+00   0.00000000000000E+00   0.00000000000000E+00  -1.72061531255267E-13
     -2.26988361399813E-12  -2.44194514525340E-12  -1.13806937849597E-17   8.00000000000000E-02   8.00000000000000E-02
      0.00000000000000E+00   0.00000000000000E+00   0.00000000000000E+00   0.00000000000000E+00   0.00000000000000E+00
     -2.88416764854394E-17   2.00000000000000E-01   2.00000000000000E-01   0.00000000000000E+00   0.00000000000000E+00
      2.43635672837444E-12   5.58841687895893E-15   2.44194514525340E-12   1.44193416655538E-17   1.80000000000000E-01
      1.80000000000000E-01   0.00000000000000E+00   0.00000000000000E+00   0.00000000000000E+00   0.00000000000000E+00
      0.00000000000000E+00   2.58030286048453E-17
      2.10000000000000E-01
      0.00000000000000E+00   0.00000000000000E+00   0.00000000000000E+00   0.00000000000000E+00  -1.73291761625724E-13
     -2.03344317399018E-12  -2.20673493561591E-12  -1.14246949625047E-17   8.40000000000000E-02   8.40000000000000E-02
      0.00000000000000E+00   0.00000000000000E+00   0.00000000000000E+00   0.00000000000000E+00   0.00000000000000E+00
     -2.77052698004557E-17   2.00000000000000E-01   2.00000000000000E-01   0.00000000000000E+00   0.00000000000000E+00
      2.20117540015626E-12   5.55953545964842E-15   2.20673493561591E-12   1.43763177056666E-17   1.80000000000000E-01
      1.80000000000000E-01   0.00000000000000E+00   0.00000000000000E+00   0.00000000000000E+00   0.00000000000000E+00
      0.00000000000000E+00   2.47536470572937E-17
      2.20000000000000E-01
      0.00000000000000E+00   0.00000000000000E+00   0.00000000000000E+00   0.00000000000000E+00  -1.74524791532544E-13
     -1.82080266272317E-12  -1.99532745425571E-12  -1.14686704782844E-17   8.80000000000000E-02   8.80000000000000E-02
      0.00000000000000E+00   0.00000000000000E+00   0.00000000000000E+00   0.00000000000000E+00   0.00000000000000E+00
     -2.65688724483131E-17   2.00000000000000E-01   2.00000000000000E-01   0.00000000000000E+00   0.00000000000000E+00
      1.98979677845832E-12   5.53067579739615E-15   1.99532745425571E-12   1.43332867452844E-17   1.80000000000000E-01
      1.80000000000000E-01   0.00000000000000E+00   0.00000000000000E+00   0.00000000000000E+00   0.00000000000000E+00
      0.00000000000000E+00   2.37042561813130E-17
      2.30000000000000E-01
      0.00000000000000E+00   0.00000000000000E+00   0.00000000000000E+00   0.00000000000000E+00  -1.75760591650398E-13
     -1.62978970178179E-12  -1.80555029343219E-12  -1.15126208575239E-17   9.20000000000000E-02   9.20000000000000E-02
      0.00000000000000E+00   0.00000000000000E+00   0.00000000000000E+00   0.00000000000000E+00   0.00000000000000E+00
     -2.54324841022446E-17   2.00000000000000E-01   2.00000000000000E-01   0.00000000000000E+00   0.00000000000000E+00
      1.80004845489304E-12   5.50183853914520E-15   1.80555029343219E-12   1.42902486564956E-17   1.80000000000000E-01
      1.80000000000000E-01   0.00000000000000E+00   0.00000000000000E+00   0.00000000000000E+00   0.00000000000000E+00
      0.00000000000000E+00   2.26548563032728E-17
      2.40000000000000E-01
      0.00000000000000E+00   0.00000000000000E+00   0.00000000000000E+00   0.00000000000000E+00  -1.76999132863339E-13
     -1.45840744632019E-12  -1.63540657918353E-12  -1.15565466134959E-17   9.60000000000000E-02   9.60000000000000E-02
      0.00000000000000E+00   0.00000000000000E+00   0.00000000000000E+00   0.00000000000000E+00   0.00000000000000E+00
     -2.42961044404111E-17   2.00000000000000E-01   2.00000000000000E-01   0.00000000000000E+00   0.00000000000000E+00
      1.62993355479900E-12   5.47302438453572E-15   1.63540657918353E-12   1.42472033092575E-17   1.80000000000000E-01
      1.80000000000000E-01   0.00000000000000E+00   0.00000000000000E+00   0.00000000000000E+00   0.00000000000000E+00
      0.00000000000000E+00   2.16054477446494E-17
      2.50000000000000E-01
      0.00000000000000E+00   0.00000000000000E+00   0.00000000000000E+00   0.00000000000000E+00  -1.78240386271002E-13
     -1.30482288943837E-12  -1.48306327570937E-12  -1.16004482478086E-17   1.00000000000000E-01   1.00000000000000E-01
      0.00000000000000E+00   0.00000000000000E+00   0.00000000000000E+00   0.00000000000000E+00   0.00000000000000E+00
     -2.31597331457130E-17   2.00000000000000E-01   2.00000000000000E-01   0.00000000000000E+00   0.00000000000000E+00
      1.47761904171077E-12   5.44423399860068E-15   1.48306327570937E-12   1.42041505713106E-17   1.80000000000000E-01
      1.80000000000000E-01   0.00000000000000E+00   0.00000000000000E+00   0.00000000000000E+00   0.00000000000000E+00
      0.00000000000000E+00   2.05560308222110E-17
      2.60000000000000E-01
      0.00000000000000E+00   0.00000000000000E+00   0.00000000000000E+00   0.00000000000000E+00  -1.79484323194168E-13
     -1.16735576487467E-12  -1.34684008806883E-12  -1.16443262506871E-17   1.04000000000000E-01   1.04000000000000E-01
      0.00000000000000E+00   0.00000000000000E+00   0.00000000000000E+00   0.00000000000000E+00   0.00000000000000E+00
     -2.20233699056055E-17   2.00000000000000E-01   2.00000000000000E-01   0.00000000000000E+00   0.00000000000000E+00
      1.34142462006540E-12   5.41546800343285E-15   1.34684008806883E-12   1.41610903080931E-17   1.80000000000000E-01
      1.80000000000000E-01   0.00000000000000E+00   0.00000000000000E+00   0.00000000000000E+00   0.00000000000000E+00
      0.00000000000000E+00   1.95066058481995E-17
      2.70000000000000E-01
      0.00000000000000E+00   0.00000000000000E+00   0.00000000000000E+00   0.00000000000000E+00  -1.80730915179585E-13
     -1.04446803422850E-12  -1.22519894940808E-12  -1.16881811012470E-17   1.08000000000000E-01   1.08000000000000E-01
      0.00000000000000E+00   0.00000000000000E+00   0.00000000000000E+00   0.00000000000000E+00   0.00000000000000E+00
     -2.08870144119185E-17   2.00000000000000E-01   2.00000000000000E-01   0.00000000000000E+00   0.00000000000000E+00
      1.21981222241266E-12   5.38672699541962E-15   1.22519894940808E-12   1.41180223826565E-17   1.80000000000000E-01
      1.80000000000000E-01   0.00000000000000E+00   0.00000000000000E+00   0.00000000000000E+00   0.00000000000000E+00
      0.00000000000000E+00   1.84571731305089E-17
      2.80000000000000E-01
      0.00000000000000E+00   0.00000000000000E+00   0.00000000000000E+00   0.00000000000000E+00  -1.81980134004319E-13
     -9.34753944697415E-13  -1.11673407870173E-12  -1.17320132677626E-17   1.12000000000000E-01   1.12000000000000E-01
      0.00000000000000E+00   0.00000000000000E+00   0.00000000000000E+00   0.00000000000000E+00   0.00000000000000E+00
     -1.97506663606786E-17   2.00000000000000E-01   2.00000000000000E-01   0.00000000000000E+00   0.00000000000000E+00
      1.11137606711344E-12   5.35801158829612E-15   1.11673407870173E-12   1.40749466555814E-17   1.80000000000000E-01
      1.80000000000000E-01   0.00000000000000E+00   0.00000000000000E+00   0.00000000000000E+00   0.00000000000000E+00
      0.00000000000000E+00   1.74077329728598E-17
      2.90000000000000E-01
      0.00000000000000E+00   0.00000000000000E+00   0.00000000000000E+00   0.00000000000000E+00  -1.83231951679460E-13
     -8.36930642984916E-13  -1.02016259466438E-12  -1.17758232079276E-17   1.16000000000000E-01   1.16000000000000E-01
      0.00000000000000E+00   0.00000000000000E+00   0.00000000000000E+00   0.00000000000000E+00   0.00000000000000E+00
     -1.86143254519365E-17   2.00000000000000E-01   2.00000000000000E-01   0.00000000000000E+00   0.00000000000000E+00
      1.01483327228507E-12   5.32932237930827E-15   1.02016259466438E-12   1.40318629848931E-17   1.80000000000000E-01
      1.80000000000000E-01   0.00000000000000E+00   0.00000000000000E+00   0.00000000000000E+00   0.00000000000000E+00
      0.00000000000000E+00   1.63582856749710E-17
      3.00000000000000E-01
      0.00000000000000E+00   0.00000000000000E+00   0.00000000000000E+00   0.00000000000000E+00  -1.84486340453363E-13
     -7.49829331052891E-13  -9.34315671506253E-13  -1.18196113691095E-17   1.20000000000000E-01   1.20000000000000E-01
      0.00000000000000E+00   0.00000000000000E+00   0.00000000000000E+00   0.00000000000000E+00   0.00000000000000E+00
     -1.74779913895962E-17   2.00000000000000E-01   2.00000000000000E-01   0.00000000000000E+00   0.00000000000000E+00
      9.29015011588776E-13   5.30065991747658E-15   9.34315671506253E-13   1.39887712259778E-17   1.80000000000000E-01
      1.80000000000000E-01   0.00000000000000E+00   0.00000000000000E+00   0.00000000000000E+00   0.00000000000000E+00
      0.00000000000000E+00   1.53088315327278E-17
      3.10000000000000E-01
      0.00000000000000E+00   0.00000000000000E+00   0.00000000000000E+00   0.00000000000000E+00  -1.85743272814506E-13
     -6.72386949309162E-13  -8.58130222123668E-13  -1.18633781885985E-17   1.24000000000000E-01   1.24000000000000E-01
      0.00000000000000E+00   0.00000000000000E+00   0.00000000000000E+00   0.00000000000000E+00   0.00000000000000E+00
     -1.63416638812477E-17   2.00000000000000E-01   2.00000000000000E-01   0.00000000000000E+00   0.00000000000000E+00
      8.52858197352438E-13   5.27202477122968E-15   8.58130222123668E-13   1.39456712314984E-17   1.80000000000000E-01
      1.80000000000000E-01   0.00000000000000E+00   0.00000000000000E+00   0.00000000000000E+00   0.00000000000000E+00
      0.00000000000000E+00   1.42593708383478E-17
      3.20000000000000E-01
      0.00000000000000E+00   0.00000000000000E+00   0.00000000000000E+00   0.00000000000000E+00  -1.87002721493774E-13
     -6.03638372468780E-13  -7.90641093962554E-13  -1.19071240938497E-17   1.28000000000000E-01   1.28000000000000E-01
      0.00000000000000E+00   0.00000000000000E+00   0.00000000000000E+00   0.00000000000000E+00   0.00000000000000E+00
     -1.52053426380030E-17   2.00000000000000E-01   2.00000000000000E-01   0.00000000000000E+00   0.00000000000000E+00
      7.85397676483756E-13   5.24341747879779E-15   7.90641093962554E-13   1.39025628513095E-17   1.80000000000000E-01
      1.80000000000000E-01   0.00000000000000E+00   0.00000000000000E+00   0.00000000000000E+00   0.00000000000000E+00
      0.00000000000000E+00   1.32099038805431E-17
      3.30000000000000E-01
      0.00000000000000E+00   0.00000000000000E+00   0.00000000000000E+00   0.00000000000000E+00  -1.88264659466621E-13
     -5.42709103769855E-13  -7.30973763236476E-13  -1.19508495027190E-17   1.32000000000000E-01   1.32000000000000E-01
      0.00000000000000E+00   0.00000000000000E+00   0.00000000000000E+00   0.00000000000000E+00   0.00000000000000E+00
     -1.40690273743345E-17   2.00000000000000E-01   2.00000000000000E-01   0.00000000000000E+00   0.00000000000000E+00
      7.25758924656605E-13   5.21483857987105E-15   7.30973763236476E-13   1.38594459323732E-17   1.80000000000000E-01
      1.80000000000000E-01   0.00000000000000E+00   0.00000000000000E+00   0.00000000000000E+00   0.00000000000000E+00
      0.00000000000000E+00   1.21604309446804E-17
      3.40000000000000E-01
      0.00000000000000E+00   0.00000000000000E+00   0.00000000000000E+00   0.00000000000000E+00  -1.89529059954646E-13
     -4.88808452997711E-13  -6.78337512952357E-13  -1.19945548236946E-17   1.36000000000000E-01   1.36000000000000E-01
      0.00000000000000E+00   0.00000000000000E+00   0.00000000000000E+00   0.00000000000000E+00   0.00000000000000E+00
     -1.29327178079164E-17   2.00000000000000E-01   2.00000000000000E-01   0.00000000000000E+00   0.00000000000000E+00
      6.73151224345020E-13   5.18628860733619E-15   6.78337512952356E-13   1.38163203186724E-17   1.80000000000000E-01
      1.80000000000000E-01   0.00000000000000E+00   0.00000000000000E+00   0.00000000000000E+00   0.00000000000000E+00
      0.00000000000000E+00   1.11109523129386E-17
      3.50000000000000E-01
      0.00000000000000E+00   0.00000000000000E+00   0.00000000000000E+00   0.00000000000000E+00  -1.90795896426988E-13
     -4.41223184083783E-13  -6.32019080510770E-13  -1.20382404561209E-17   1.40000000000000E-01   1.40000000000000E-01
      0.00000000000000E+00   0.00000000000000E+00   0.00000000000000E+00   0.00000000000000E+00   0.00000000000000E+00
     -1.17964136594681E-17   2.00000000000000E-01   2.00000000000000E-01   0.00000000000000E+00   0.00000000000000E+00
      6.26861312438392E-13   5.15776807237785E-15   6.32019080510770E-13   1.37731858511254E-17   1.80000000000000E-01
      1.80000000000000E-01   0.00000000000000E+00   0.00000000000000E+00   0.00000000000000E+00   0.00000000000000E+00
      0.00000000000000E+00   1.00614682644636E-17
      3.60000000000000E-01
      0.00000000000000E+00   0.00000000000000E+00   0.00000000000000E+00   0.00000000000000E+00  -1.92065142601473E-13
     -3.99311618285102E-13  -5.91376760886575E-13  -1.20819067904188E-17   1.44000000000000E-01   1.44000000000000E-01
      0.00000000000000E+00   0.00000000000000E+00   0.00000000000000E+00   0.00000000000000E+00   0.00000000000000E+00
     -1.06601146526005E-17   2.00000000000000E-01   2.00000000000000E-01   0.00000000000000E+00   0.00000000000000E+00
      5.86247483394939E-13   5.12927749163635E-15   5.91376760886575E-13   1.37300423674980E-17   1.80000000000000E-01
      1.80000000000000E-01   0.00000000000000E+00   0.00000000000000E+00   0.00000000000000E+00   0.00000000000000E+00
      0.00000000000000E+00   9.01197907552137E-18
      3.70000000000000E-01
      0.00000000000000E+00   0.00000000000000E+00   0.00000000000000E+00   0.00000000000000E+00  -1.93336772445341E-13