DF-ISE text

Info {
  version   = 1.0
  type      = xyplot
  datasets  = [
    "time"
    "source OuterVoltage" "source InnerVoltage" "source QuasiFermiPotential" "source DisplacementCurrent" "source eCurrent"
    "source hCurrent" "source TotalCurrent" "source Charge" "topGate OuterVoltage" "topGate InnerVoltage"
    "topGate QuasiFermiPotential" "topGate DisplacementCurrent" "topGate eCurrent" "topGate hCurrent" "topGate TotalCurrent"
    "topGate Charge" "drain OuterVoltage" "drain InnerVoltage" "drain QuasiFermiPotential" "drain DisplacementCurrent"
    "drain eCurrent" "drain hCurrent" "drain TotalCurrent" "drain Charge" "bottomGate OuterVoltage"
    "bottomGate InnerVoltage" "bottomGate QuasiFermiPotential" "bottomGate DisplacementCurrent" "bottomGate eCurrent" "bottomGate hCurrent"
    "bottomGate TotalCurrent" "bottomGate Charge" ]
  functions = [
    Time
    OuterVoltage InnerVoltage QuasiFermiPotential DisplacementCurrent eCurrent
    hCurrent TotalCurrent Charge OuterVoltage InnerVoltage
    QuasiFermiPotential DisplacementCurrent eCurrent hCurrent TotalCurrent
    Charge OuterVoltage InnerVoltage QuasiFermiPotential DisplacementCurrent
    eCurrent hCurrent TotalCurrent Charge OuterVoltage
    InnerVoltage QuasiFermiPotential DisplacementCurrent eCurrent hCurrent
    TotalCurrent Charge ]
}

Data {
      1.00000000000000E-02
      0.00000000000000E+00   0.00000000000000E+00   0.00000000000000E+00   0.00000000000000E+00  -1.43320570605697E-13
     -7.98621573587720E-12  -8.12953630648290E-12  -1.03153455029503E-17   4.00000000000000E-03   4.00000000000000E-03
      0.00000000000000E+00   0.00000000000000E+00   0.00000000000000E+00   0.00000000000000E+00   0.00000000000000E+00
     -4.48683480249698E-17   1.70000000000000E-01   1.70000000000000E-01   0.00000000000000E+00   0.00000000000000E+00
      8.12369287665855E-12   5.84342982436550E-15   8.12953630648292E-12   1.48062984338498E-17   1.60000000000000E-01
      1.60000000000000E-01   0.00000000000000E+00   0.00000000000000E+00   0.00000000000000E+00   0.00000000000000E+00
      0.00000000000000E+00   4.03773950940704E-17
      2.00000000000000E-02
      0.00000000000000E+00   0.00000000000000E+00   0.00000000000000E+00   0.00000000000000E+00  -1.44473010147490E-13
     -7.20916957001466E-12  -7.35364258016215E-12  -1.03601570192495E-17   8.00000000000000E-03   8.00000000000000E-03
      0.00000000000000E+00   0.00000000000000E+00   0.00000000000000E+00   0.00000000000000E+00   0.00000000000000E+00
     -4.37315629404830E-17   1.70000000000000E-01   1.70000000000000E-01   0.00000000000000E+00   0.00000000000000E+00
      7.34782815841169E-12   5.81442175046013E-15   7.35364258016215E-12   1.47633283343443E-17   1.60000000000000E-01
      1.60000000000000E-01   0.00000000000000E+00   0.00000000000000E+00   0.00000000000000E+00   0.00000000000000E+00
      0.00000000000000E+00   3.93283916253883E-17
      3.00000000000000E-02
      0.00000000000000E+00   0.00000000000000E+00   0.00000000000000E+00   0.00000000000000E+00  -1.45629013135389E-13
     -6.50149215803234E-12  -6.64712117116773E-12  -1.04049257954605E-17   1.20000000000000E-02   1.20000000000000E-02
      0.00000000000000E+00   0.00000000000000E+00   0.00000000000000E+00   0.00000000000000E+00   0.00000000000000E+00
     -4.25947964157312E-17   1.70000000000000E-01   1.70000000000000E-01   0.00000000000000E+00   0.00000000000000E+00
      6.64133574367647E-12   5.78542749125952E-15   6.64712117116773E-12   1.47203525811739E-17   1.60000000000000E-01
      1.60000000000000E-01   0.00000000000000E+00   0.00000000000000E+00   0.00000000000000E+00   0.00000000000000E+00
      0.00000000000000E+00   3.82793696300178E-17
      4.00000000000000E-02
      0.00000000000000E+00   0.00000000000000E+00   0.00000000000000E+00   0.00000000000000E+00  -1.46788546940061E-13
     -5.85768378977623E-12  -6.00447233671630E-12  -1.04496527512027E-17   1.60000000000000E-02   1.60000000000000E-02
      0.00000000000000E+00   0.00000000000000E+00   0.00000000000000E+00   0.00000000000000E+00   0.00000000000000E+00
     -4.14580479225365E-17   1.70000000000000E-01   1.70000000000000E-01   0.00000000000000E+00   0.00000000000000E+00
      5.99871588845622E-12   5.75644826007779E-15   6.00447233671629E-12   1.46773710404897E-17   1.60000000000000E-01
      1.60000000000000E-01   0.00000000000000E+00   0.00000000000000E+00   0.00000000000000E+00   0.00000000000000E+00
      0.00000000000000E+00   3.72303296332495E-17
      5.00000000000000E-02
      0.00000000000000E+00   0.00000000000000E+00   0.00000000000000E+00   0.00000000000000E+00  -1.47951578832958E-13
     -5.27261709233995E-12  -5.42056867117291E-12  -1.04943387846806E-17   2.00000000000000E-02   2.00000000000000E-02
      0.00000000000000E+00   0.00000000000000E+00   0.00000000000000E+00   0.00000000000000E+00   0.00000000000000E+00
     -4.03213169437198E-17   1.70000000000000E-01   1.70000000000000E-01   0.00000000000000E+00   0.00000000000000E+00
      5.41484118618303E-12   5.72748498987915E-15   5.42056867117291E-12   1.46343835787770E-17   1.60000000000000E-01
      1.60000000000000E-01   0.00000000000000E+00   0.00000000000000E+00   0.00000000000000E+00   0.00000000000000E+00
      0.00000000000000E+00   3.61812721496234E-17
      6.00000000000000E-02
      0.00000000000000E+00   0.00000000000000E+00   0.00000000000000E+00   0.00000000000000E+00  -1.49118076021859E-13
     -4.74151697939002E-12  -4.89063505541188E-12  -1.05389847731932E-17   2.40000000000000E-02   2.40000000000000E-02
      0.00000000000000E+00   0.00000000000000E+00   0.00000000000000E+00   0.00000000000000E+00   0.00000000000000E+00
     -3.91846029727197E-17   1.70000000000000E-01   1.70000000000000E-01   0.00000000000000E+00   0.00000000000000E+00
      4.88493651679306E-12   5.69853861881986E-15   4.89063505541188E-12   1.45913900626245E-17   1.60000000000000E-01
      1.60000000000000E-01   0.00000000000000E+00   0.00000000000000E+00   0.00000000000000E+00   0.00000000000000E+00
      0.00000000000000E+00   3.51321976832885E-17
      7.00000000000000E-02
      0.00000000000000E+00   0.00000000000000E+00   0.00000000000000E+00   0.00000000000000E+00  -1.50288005683167E-13
     -4.25994132880599E-12  -4.41022933448915E-12  -1.05835915736325E-17   2.80000000000000E-02   2.80000000000000E-02
      0.00000000000000E+00   0.00000000000000E+00   0.00000000000000E+00   0.00000000000000E+00   0.00000000000000E+00
     -3.80479055132254E-17   1.70000000000000E-01   1.70000000000000E-01   0.00000000000000E+00   0.00000000000000E+00
      4.40455972450216E-12   5.66960998699631E-15   4.41022933448915E-12   1.45483903585068E-17   1.60000000000000E-01
      1.60000000000000E-01   0.00000000000000E+00   0.00000000000000E+00   0.00000000000000E+00   0.00000000000000E+00
      0.00000000000000E+00   3.40831067283511E-17
      8.00000000000000E-02
      0.00000000000000E+00   0.00000000000000E+00   0.00000000000000E+00   0.00000000000000E+00  -1.51461334991040E-13
     -3.82376238243417E-12  -3.97522371742521E-12  -1.06281600229702E-17   3.20000000000000E-02   3.20000000000000E-02
      0.00000000000000E+00   0.00000000000000E+00   0.00000000000000E+00   0.00000000000000E+00   0.00000000000000E+00
     -3.69112240788212E-17   1.70000000000000E-01   1.70000000000000E-01   0.00000000000000E+00   0.00000000000000E+00
      3.96958301739921E-12   5.64070002600403E-15   3.97522371742521E-12   1.45053843325794E-17   1.60000000000000E-01
      1.60000000000000E-01   0.00000000000000E+00   0.00000000000000E+00   0.00000000000000E+00   0.00000000000000E+00
      0.00000000000000E+00   3.30339997692120E-17
      9.00000000000000E-02
      0.00000000000000E+00   0.00000000000000E+00   0.00000000000000E+00   0.00000000000000E+00  -1.52638031143850E-13
     -3.42914885961754E-12  -3.58178689076139E-12  -1.06726909387338E-17   3.60000000000000E-02   3.60000000000000E-02
      0.00000000000000E+00   0.00000000000000E+00   0.00000000000000E+00   0.00000000000000E+00   0.00000000000000E+00
     -3.57745581926442E-17   1.70000000000000E-01   1.70000000000000E-01   0.00000000000000E+00   0.00000000000000E+00
      3.57617508120355E-12   5.61180955784138E-15   3.58178689076139E-12   1.44623718504846E-17   1.60000000000000E-01
      1.60000000000000E-01   0.00000000000000E+00   0.00000000000000E+00   0.00000000000000E+00   0.00000000000000E+00
      0.00000000000000E+00   3.19848772808933E-17
      1.00000000000000E-01
      0.00000000000000E+00   0.00000000000000E+00   0.00000000000000E+00   0.00000000000000E+00  -1.53818061388057E-13
     -3.07254877672044E-12  -3.22636683810850E-12  -1.07171851194710E-17   4.00000000000000E-02   4.00000000000000E-02
      0.00000000000000E+00   0.00000000000000E+00   0.00000000000000E+00   0.00000000000000E+00   0.00000000000000E+00
     -3.46379073870517E-17   1.70000000000000E-01   1.70000000000000E-01   0.00000000000000E+00   0.00000000000000E+00
      3.22078389877568E-12   5.58293933281416E-15   3.22636683810850E-12   1.44193527771673E-17   1.60000000000000E-01
      1.60000000000000E-01   0.00000000000000E+00   0.00000000000000E+00   0.00000000000000E+00   0.00000000000000E+00
      0.00000000000000E+00   3.09357397293555E-17
      1.10000000000000E-01
      0.00000000000000E+00   0.00000000000000E+00   0.00000000000000E+00   0.00000000000000E+00  -1.55001393039912E-13
     -2.75067296335799E-12  -2.90567435639790E-12  -1.07616433452047E-17   4.40000000000000E-02   4.40000000000000E-02
      0.00000000000000E+00   0.00000000000000E+00   0.00000000000000E+00   0.00000000000000E+00   0.00000000000000E+00
     -3.35012712033003E-17   1.70000000000000E-01   1.70000000000000E-01   0.00000000000000E+00   0.00000000000000E+00
      2.90012026622815E-12   5.55409016974795E-15   2.90567435639790E-12   1.43763269767000E-17   1.60000000000000E-01
      1.60000000000000E-01   0.00000000000000E+00   0.00000000000000E+00   0.00000000000000E+00   0.00000000000000E+00
      0.00000000000000E+00   2.98865875718050E-17
      1.20000000000000E-01
      0.00000000000000E+00   0.00000000000000E+00   0.00000000000000E+00   0.00000000000000E+00  -1.56187993505032E-13
     -2.46047926492498E-12  -2.61666725843001E-12  -1.08060663778761E-17   4.80000000000000E-02   4.80000000000000E-02
      0.00000000000000E+00   0.00000000000000E+00   0.00000000000000E+00   0.00000000000000E+00   0.00000000000000E+00
     -3.23646491912343E-17   1.70000000000000E-01   1.70000000000000E-01   0.00000000000000E+00   0.00000000000000E+00
      2.61114199576400E-12   5.52526266601006E-15   2.61666725843001E-12   1.43332943121167E-17   1.60000000000000E-01
      1.60000000000000E-01   0.00000000000000E+00   0.00000000000000E+00   0.00000000000000E+00   0.00000000000000E+00
      0.00000000000000E+00   2.88374212569938E-17
      1.30000000000000E-01
      0.00000000000000E+00   0.00000000000000E+00   0.00000000000000E+00   0.00000000000000E+00  -1.57377830296175E-13
     -2.19915742197362E-12  -2.35653525226979E-12  -1.08504549617785E-17   5.20000000000000E-02   5.20000000000000E-02
      0.00000000000000E+00   0.00000000000000E+00   0.00000000000000E+00   0.00000000000000E+00   0.00000000000000E+00
     -3.12280409089838E-17   1.70000000000000E-01   1.70000000000000E-01   0.00000000000000E+00   0.00000000000000E+00
      2.35103879467352E-12   5.49645759627345E-15   2.35653525226980E-12   1.42902546452532E-17   1.60000000000000E-01
      1.60000000000000E-01   0.00000000000000E+00   0.00000000000000E+00   0.00000000000000E+00   0.00000000000000E+00
      0.00000000000000E+00   2.77882412255091E-17
      1.40000000000000E-01
      0.00000000000000E+00   0.00000000000000E+00   0.00000000000000E+00   0.00000000000000E+00  -1.58570871049348E-13
     -1.96411461382802E-12  -2.12268548487737E-12  -1.08948098239809E-17   5.60000000000000E-02   5.60000000000000E-02
      0.00000000000000E+00   0.00000000000000E+00   0.00000000000000E+00   0.00000000000000E+00   0.00000000000000E+00
     -3.00914459226715E-17   1.70000000000000E-01   1.70000000000000E-01   0.00000000000000E+00   0.00000000000000E+00
      2.11721780925119E-12   5.46767562618007E-15   2.12268548487737E-12   1.42472078365956E-17   1.60000000000000E-01
      1.60000000000000E-01   0.00000000000000E+00   0.00000000000000E+00   0.00000000000000E+00   0.00000000000000E+00
      0.00000000000000E+00   2.67390479100569E-17
      1.50000000000000E-01
      0.00000000000000E+00   0.00000000000000E+00   0.00000000000000E+00   0.00000000000000E+00  -1.59767083538293E-13
     -1.75296165556335E-12  -1.91272873910164E-12  -1.09391316747411E-17   6.00000000000000E-02   6.00000000000000E-02
      0.00000000000000E+00   0.00000000000000E+00   0.00000000000000E+00   0.00000000000000E+00   0.00000000000000E+00
     -2.89548638061285E-17   1.70000000000000E-01   1.70000000000000E-01   0.00000000000000E+00   0.00000000000000E+00
      1.90728982175863E-12   5.43891734300747E-15   1.91272873910164E-12   1.42041537451330E-17   1.60000000000000E-01
      1.60000000000000E-01   0.00000000000000E+00   0.00000000000000E+00   0.00000000000000E+00   0.00000000000000E+00
      0.00000000000000E+00   2.56898417357365E-17
      1.60000000000000E-01
      0.00000000000000E+00   0.00000000000000E+00   0.00000000000000E+00   0.00000000000000E+00  -1.60966435687743E-13
     -1.56349983570115E-12  -1.72446627138889E-12  -1.09834212079099E-17   6.40000000000000E-02   6.40000000000000E-02
      0.00000000000000E+00   0.00000000000000E+00   0.00000000000000E+00   0.00000000000000E+00   0.00000000000000E+00
     -2.78182941406169E-17   1.70000000000000E-01   1.70000000000000E-01   0.00000000000000E+00   0.00000000000000E+00
      1.71905608795693E-12   5.41018343195568E-15   1.72446627138889E-12   1.41610922282181E-17   1.60000000000000E-01
      1.60000000000000E-01   0.00000000000000E+00   0.00000000000000E+00   0.00000000000000E+00   0.00000000000000E+00
      0.00000000000000E+00   2.46406231203086E-17
      1.70000000000000E-01
      0.00000000000000E+00   0.00000000000000E+00   0.00000000000000E+00   0.00000000000000E+00  -1.62168895585243E-13
     -1.39370838109175E-12  -1.55587727667700E-12  -1.10276791013254E-17   6.80000000000000E-02   6.80000000000000E-02
      0.00000000000000E+00   0.00000000000000E+00   0.00000000000000E+00   0.00000000000000E+00   0.00000000000000E+00
     -2.66817365145614E-17   1.70000000000000E-01   1.70000000000000E-01   0.00000000000000E+00   0.00000000000000E+00
      1.55049580216918E-12   5.38147450781784E-15   1.55587727667700E-12   1.41180231414302E-17   1.60000000000000E-01
      1.60000000000000E-01   0.00000000000000E+00   0.00000000000000E+00   0.00000000000000E+00   0.00000000000000E+00
      0.00000000000000E+00   2.35913924744566E-17
      1.80000000000000E-01
      0.00000000000000E+00   0.00000000000000E+00   0.00000000000000E+00   0.00000000000000E+00  -1.63374431491973E-13
     -1.24173253592959E-12  -1.40510696742156E-12  -1.10719060171981E-17   7.20000000000000E-02   7.20000000000000E-02
      0.00000000000000E+00   0.00000000000000E+00   0.00000000000000E+00   0.00000000000000E+00   0.00000000000000E+00
     -2.55451905232872E-17   1.70000000000000E-01   1.70000000000000E-01   0.00000000000000E+00   0.00000000000000E+00
      1.39975417631319E-12   5.35279110837214E-15   1.40510696742156E-12   1.40749463384445E-17   1.60000000000000E-01
      1.60000000000000E-01   0.00000000000000E+00   0.00000000000000E+00   0.00000000000000E+00   0.00000000000000E+00
      0.00000000000000E+00   2.25421502020409E-17
      1.90000000000000E-01
      0.00000000000000E+00   0.00000000000000E+00   0.00000000000000E+00   0.00000000000000E+00  -1.64583011852490E-13
     -1.10587224087456E-12  -1.27045525272705E-12  -1.11161026024871E-17   7.60000000000000E-02   7.60000000000000E-02
      0.00000000000000E+00   0.00000000000000E+00   0.00000000000000E+00   0.00000000000000E+00   0.00000000000000E+00
     -2.44086557687645E-17   1.70000000000000E-01   1.70000000000000E-01   0.00000000000000E+00   0.00000000000000E+00
      1.26513111886941E-12   5.32413385764856E-15   1.27045525272705E-12   1.40318616709042E-17   1.60000000000000E-01
      1.60000000000000E-01   0.00000000000000E+00   0.00000000000000E+00   0.00000000000000E+00   0.00000000000000E+00
      0.00000000000000E+00   2.14928967003475E-17
      2.00000000000000E-01
      0.00000000000000E+00   0.00000000000000E+00   0.00000000000000E+00   0.00000000000000E+00  -1.65794605303475E-13
     -9.84571397304081E-13  -1.15036600260756E-12  -1.11602694892669E-17   8.00000000000000E-02   8.00000000000000E-02
      0.00000000000000E+00   0.00000000000000E+00   0.00000000000000E+00   0.00000000000000E+00   0.00000000000000E+00
     -2.32721318593602E-17   1.70000000000000E-01   1.70000000000000E-01   0.00000000000000E+00   0.00000000000000E+00
      1.14507049932190E-12   5.29550328566050E-15   1.15036600260756E-12   1.39887689882962E-17   1.60000000000000E-01
      1.60000000000000E-01   0.00000000000000E+00   0.00000000000000E+00   0.00000000000000E+00   0.00000000000000E+00
      0.00000000000000E+00   2.04436323603309E-17
      2.10000000000000E-01
      0.00000000000000E+00   0.00000000000000E+00   0.00000000000000E+00   0.00000000000000E+00  -1.67009180681634E-13
     -8.76407702496780E-13  -1.04341688317841E-12  -1.12044072950858E-17   8.40000000000000E-02   8.40000000000000E-02
      0.00000000000000E+00   0.00000000000000E+00   0.00000000000000E+00   0.00000000000000E+00   0.00000000000000E+00
     -2.21356184095948E-17   1.70000000000000E-01   1.70000000000000E-01   0.00000000000000E+00   0.00000000000000E+00
      1.03814998323678E-12   5.26689994163232E-15   1.04341688317841E-12   1.39456681378300E-17   1.60000000000000E-01
      1.60000000000000E-01   0.00000000000000E+00   0.00000000000000E+00   0.00000000000000E+00   0.00000000000000E+00
      0.00000000000000E+00   1.93943575668506E-17
      2.20000000000000E-01
      0.00000000000000E+00   0.00000000000000E+00   0.00000000000000E+00   0.00000000000000E+00  -1.68226707030934E-13
     -7.80083040184357E-13  -9.48309747215290E-13  -1.12485166233161E-17   8.80000000000000E-02   8.80000000000000E-02
      0.00000000000000E+00   0.00000000000000E+00   0.00000000000000E+00   0.00000000000000E+00   0.00000000000000E+00
     -2.09991150399062E-17   1.70000000000000E-01   1.70000000000000E-01   0.00000000000000E+00   0.00000000000000E+00
      9.43071422821690E-13   5.23832439360077E-15   9.48309747215291E-13   1.39025589643191E-17   1.60000000000000E-01
      1.60000000000000E-01   0.00000000000000E+00   0.00000000000000E+00   0.00000000000000E+00   0.00000000000000E+00
      0.00000000000000E+00   1.83450726989032E-17
      2.30000000000000E-01
      0.00000000000000E+00   0.00000000000000E+00   0.00000000000000E+00   0.00000000000000E+00  -1.69447153608911E-13
     -6.94414411124981E-13  -8.63861564733892E-13  -1.12925980634954E-17   9.20000000000000E-02   9.20000000000000E-02
      0.00000000000000E+00   0.00000000000000E+00   0.00000000000000E+00   0.00000000000000E+00   0.00000000000000E+00
     -1.98626213764178E-17   1.70000000000000E-01   1.70000000000000E-01   0.00000000000000E+00   0.00000000000000E+00
      8.58651787547486E-13   5.20977718640544E-15   8.63861564733892E-13   1.38594413100641E-17   1.60000000000000E-01
      1.60000000000000E-01   0.00000000000000E+00   0.00000000000000E+00   0.00000000000000E+00   0.00000000000000E+00
      0.00000000000000E+00   1.72957781298491E-17
      2.40000000000000E-01
      0.00000000000000E+00   0.00000000000000E+00   0.00000000000000E+00   0.00000000000000E+00  -1.70670489892447E-13
     -6.18325388122789E-13  -7.88995878015236E-13  -1.13366521916597E-17   9.60000000000000E-02   9.60000000000000E-02
      0.00000000000000E+00   0.00000000000000E+00   0.00000000000000E+00   0.00000000000000E+00   0.00000000000000E+00
     -1.87261370507124E-17   1.70000000000000E-01   1.70000000000000E-01   0.00000000000000E+00   0.00000000000000E+00
      7.83814619210734E-13   5.18125880450144E-15   7.88995878015235E-13   1.38163150147382E-17   1.60000000000000E-01
      1.60000000000000E-01   0.00000000000000E+00   0.00000000000000E+00   0.00000000000000E+00   0.00000000000000E+00
      0.00000000000000E+00   1.62464742276340E-17
      2.50000000000000E-01
      0.00000000000000E+00   0.00000000000000E+00   0.00000000000000E+00   0.00000000000000E+00  -1.71896685582986E-13
     -5.50838079869936E-13  -7.22734765452922E-13  -1.13806795706694E-17   1.00000000000000E-01   1.00000000000000E-01
      0.00000000000000E+00   0.00000000000000E+00   0.00000000000000E+00   0.00000000000000E+00   0.00000000000000E+00
     -1.75896616996113E-17   1.70000000000000E-01   1.70000000000000E-01   0.00000000000000E+00   0.00000000000000E+00
      7.17581995674058E-13   5.15276977886491E-15   7.22734765452922E-13   1.37731799152742E-17   1.60000000000000E-01
      1.60000000000000E-01   0.00000000000000E+00   0.00000000000000E+00   0.00000000000000E+00   0.00000000000000E+00
      0.00000000000000E+00   1.51971613550065E-17
      2.60000000000000E-01
      0.00000000000000E+00   0.00000000000000E+00   0.00000000000000E+00   0.00000000000000E+00  -1.73125710611210E-13
     -4.91065587459736E-13  -6.64191298070946E-13  -1.14246807505259E-17   1.04000000000000E-01   1.04000000000000E-01
      0.00000000000000E+00   0.00000000000000E+00   0.00000000000000E+00   0.00000000000000E+00   0.00000000000000E+00
     -1.64531949649573E-17   1.70000000000000E-01   1.70000000000000E-01   0.00000000000000E+00   0.00000000000000E+00
      6.59066987443876E-13   5.12431062706968E-15   6.64191298070946E-13   1.37300358457523E-17   1.60000000000000E-01
      1.60000000000000E-01   0.00000000000000E+00   0.00000000000000E+00   0.00000000000000E+00   0.00000000000000E+00
      0.00000000000000E+00   1.41478398697310E-17
      2.70000000000000E-01
      0.00000000000000E+00   0.00000000000000E+00   0.00000000000000E+00   0.00000000000000E+00  -1.74357535140882E-13
     -4.38204937946712E-13  -6.12562473087594E-13  -1.14686562686825E-17   1.08000000000000E-01   1.08000000000000E-01
      0.00000000000000E+00   0.00000000000000E+00   0.00000000000000E+00   0.00000000000000E+00   0.00000000000000E+00
     -1.53167364934029E-17   1.70000000000000E-01   1.70000000000000E-01   0.00000000000000E+00   0.00000000000000E+00
      6.07466591232024E-13   5.09588185556954E-15   6.12562473087594E-13   1.36868826372887E-17   1.60000000000000E-01
      1.60000000000000E-01   0.00000000000000E+00   0.00000000000000E+00   0.00000000000000E+00   0.00000000000000E+00
      0.00000000000000E+00   1.30985101247966E-17
      2.80000000000000E-01
      0.00000000000000E+00   0.00000000000000E+00   0.00000000000000E+00   0.00000000000000E+00  -1.75592129572846E-13
     -3.91530479083055E-13  -5.67122608655901E-13  -1.15126066503459E-17   1.12000000000000E-01   1.12000000000000E-01
      0.00000000000000E+00   0.00000000000000E+00   0.00000000000000E+00   0.00000000000000E+00   0.00000000000000E+00
     -1.41802859362019E-17   1.70000000000000E-01   1.70000000000000E-01   0.00000000000000E+00   0.00000000000000E+00
      5.62055124702452E-13   5.06748395344913E-15   5.67122608655901E-13   1.36437201179259E-17   1.60000000000000E-01
      1.60000000000000E-01   0.00000000000000E+00   0.00000000000000E+00   0.00000000000000E+00   0.00000000000000E+00
      0.00000000000000E+00   1.20491724686219E-17
      2.90000000000000E-01
      0.00000000000000E+00   0.00000000000000E+00   0.00000000000000E+00   0.00000000000000E+00  -1.76829464548090E-13
     -3.50387719622006E-13  -5.27217184170096E-13  -1.15565324087720E-17   1.16000000000000E-01   1.16000000000000E-01
      0.00000000000000E+00   0.00000000000000E+00   0.00000000000000E+00   0.00000000000000E+00   0.00000000000000E+00
     -1.30438429490061E-17   1.70000000000000E-01   1.70000000000000E-01   0.00000000000000E+00   0.00000000000000E+00
      5.22178066722349E-13   5.03911744774752E-15   5.27217184170096E-13   1.36005481125218E-17   1.60000000000000E-01
      1.60000000000000E-01   0.00000000000000E+00   0.00000000000000E+00   0.00000000000000E+00   0.00000000000000E+00
      0.00000000000000E+00   1.09998272452562E-17
      3.00000000000000E-01
      0.00000000000000E+00   0.00000000000000E+00   0.00000000000000E+00   0.00000000000000E+00  -1.78069510950479E-13
     -3.14187599461170E-13  -4.92257110411649E-13  -1.16004340455531E-17   1.20000000000000E-01   1.20000000000000E-01
      0.00000000000000E+00   0.00000000000000E+00   0.00000000000000E+00   0.00000000000000E+00   0.00000000000000E+00
     -1.19074071916644E-17   1.70000000000000E-01   1.70000000000000E-01   0.00000000000000E+00   0.00000000000000E+00
      4.87246327625901E-13   5.01078278574852E-15   4.92257110411650E-13   1.35573664426402E-17   1.60000000000000E-01
      1.60000000000000E-01   0.00000000000000E+00   0.00000000000000E+00   0.00000000000000E+00   0.00000000000000E+00
      0.00000000000000E+00   9.95047479457734E-18
      3.10000000000000E-01
      0.00000000000000E+00   0.00000000000000E+00   0.00000000000000E+00   0.00000000000000E+00  -1.79312239909484E-13
     -2.82401174824743E-13  -4.61713414734227E-13  -1.16443120508998E-17   1.24000000000000E-01   1.24000000000000E-01
      0.00000000000000E+00   0.00000000000000E+00   0.00000000000000E+00   0.00000000000000E+00   0.00000000000000E+00
     -1.07709783280267E-17   1.70000000000000E-01   1.70000000000000E-01   0.00000000000000E+00   0.00000000000000E+00
      4.56730934252719E-13   4.98248048150882E-15   4.61713414734227E-13   1.35141749264408E-17   1.60000000000000E-01
      1.60000000000000E-01   0.00000000000000E+00   0.00000000000000E+00   0.00000000000000E+00   0.00000000000000E+00
      0.00000000000000E+00   8.90111545248577E-18
      3.20000000000000E-01
      0.00000000000000E+00   0.00000000000000E+00   0.00000000000000E+00   0.00000000000000E+00  -1.80557622802243E-13
     -2.54554703074370E-13  -4.35112325876614E-13  -1.16881669039144E-17   1.28000000000000E-01   1.28000000000000E-01
      0.00000000000000E+00   0.00000000000000E+00   0.00000000000000E+00   0.00000000000000E+00   0.00000000000000E+00
     -9.63455602575019E-18   1.70000000000000E-01   1.70000000000000E-01   0.00000000000000E+00   0.00000000000000E+00
      4.30158114842581E-13   4.95421103403277E-15   4.35112325876614E-13   1.34709733785686E-17   1.60000000000000E-01
      1.60000000000000E-01   0.00000000000000E+00   0.00000000000000E+00   0.00000000000000E+00   0.00000000000000E+00
      0.00000000000000E+00   7.85174955109598E-18
      3.30000000000000E-01
      0.00000000000000E+00   0.00000000000000E+00   0.00000000000000E+00   0.00000000000000E+00  -1.81805631255390E-13
     -2.30225112913945E-13  -4.12030744169335E-13  -1.17319990728584E-17   1.32000000000000E-01   1.32000000000000E-01
      0.00000000000000E+00   0.00000000000000E+00   0.00000000000000E+00   0.00000000000000E+00   0.00000000000000E+00
     -8.49813995610926E-18   1.70000000000000E-01   1.70000000000000E-01   0.00000000000000E+00   0.00000000000000E+00
      4.07104769254972E-13   4.92597491436216E-15   4.12030744169335E-13   1.34277616100432E-17   1.60000000000000E-01
      1.60000000000000E-01   0.00000000000000E+00   0.00000000000000E+00   0.00000000000000E+00   0.00000000000000E+00
      0.00000000000000E+00   6.80237741892451E-18
      3.40000000000000E-01
      0.00000000000000E+00   0.00000000000000E+00   0.00000000000000E+00   0.00000000000000E+00  -1.83056237146616E-13
     -2.09035845881481E-13  -3.92092083028097E-13  -1.17758090154140E-17   1.36000000000000E-01   1.36000000000000E-01
      0.00000000000000E+00   0.00000000000000E+00   0.00000000000000E+00   0.00000000000000E+00   0.00000000000000E+00
     -7.36172979380857E-18   1.70000000000000E-01   1.70000000000000E-01   0.00000000000000E+00   0.00000000000000E+00
      3.87194310431288E-13   4.89777259680918E-15   3.92092083028097E-13   1.33845394281472E-17   1.60000000000000E-01
      1.60000000000000E-01   0.00000000000000E+00   0.00000000000000E+00   0.00000000000000E+00   0.00000000000000E+00
      0.00000000000000E+00   5.75299938107538E-18
      3.50000000000000E-01
      0.00000000000000E+00   0.00000000000000E+00   0.00000000000000E+00   0.00000000000000E+00  -1.84309412606256E-13
     -1.90653055496086E-13  -3.74962468102342E-13  -1.18195971789380E-17   1.40000000000000E-01   1.40000000000000E-01
      0.00000000000000E+00   0.00000000000000E+00   0.00000000000000E+00   0.00000000000000E+00   0.00000000000000E+00
     -6.22532521679847E-18   1.70000000000000E-01   1.70000000000000E-01   0.00000000000000E+00   0.00000000000000E+00
      3.70092863529623E-13   4.86960457271919E-15   3.74962468102342E-13   1.33413066363138E-17   1.60000000000000E-01
      1.60000000000000E-01   0.00000000000000E+00   0.00000000000000E+00   0.00000000000000E+00   0.00000000000000E+00
      0.00000000000000E+00   4.70361575942268E-18
      3.60000000000000E-01
      0.00000000000000E+00   0.00000000000000E+00   0.00000000000000E+00   0.00000000000000E+00  -1.85565130018069E-13
     -1.74782151040039E-13  -3.60347281058108E-13  -1.18633640007106E-17   1.44000000000000E-01   1.44000000000000E-01
      0.00000000000000E+00   0.00000000000000E+00   0.00000000000000E+00   0.00000000000000E+00   0.00000000000000E+00
     -5.08892590609343E-18   1.70000000000000E-01   1.70000000000000E-01   0.00000000000000E+00   0.00000000000000E+00
      3.55505809732483E-13   4.84147132562414E-15   3.60347281058108E-13   1.32980630340132E-17   1.60000000000000E-01
      1.60000000000000E-01   0.00000000000000E+00   0.00000000000000E+00   0.00000000000000E+00   0.00000000000000E+00
      0.00000000000000E+00   3.65422687279085E-18
      3.70000000000000E-01
      0.00000000000000E+00   0.00000000000000E+00   0.00000000000000E+00   0.00000000000000E+00  -1.86823362020368E-13