DF-ISE text

Info {
  version   = 1.0
  type      = xyplot
  datasets  = [
    "time"
    "source OuterVoltage" "source InnerVoltage" "source QuasiFermiPotential" "source DisplacementCurrent" "source eCurrent"
    "source hCurrent" "source TotalCurrent" "source Charge" "topGate OuterVoltage" "topGate InnerVoltage"
    "topGate QuasiFermiPotential" "topGate DisplacementCurrent" "topGate eCurrent" "topGate hCurrent" "topGate TotalCurrent"
    "topGate Charge" "drain OuterVoltage" "drain InnerVoltage" "drain QuasiFermiPotential" "drain DisplacementCurrent"
    "drain eCurrent" "drain hCurrent" "drain TotalCurrent" "drain Charge" "bottomGate OuterVoltage"
    "bottomGate InnerVoltage" "bottomGate QuasiFermiPotential" "bottomGate DisplacementCurrent" "bottomGate eCurrent" "bottomGate hCurrent"
    "bottomGate TotalCurrent" "bottomGate Charge" ]
  functions = [
    Time
    OuterVoltage InnerVoltage QuasiFermiPotential DisplacementCurrent eCurrent
    hCurrent TotalCurrent Charge OuterVoltage InnerVoltage
    QuasiFermiPotential DisplacementCurrent eCurrent hCurrent TotalCurrent
    Charge OuterVoltage InnerVoltage QuasiFermiPotential DisplacementCurrent
    eCurrent hCurrent TotalCurrent Charge OuterVoltage
    InnerVoltage QuasiFermiPotential DisplacementCurrent eCurrent hCurrent
    TotalCurrent Charge ]
}

Data {
      1.00000000000000E-02
      0.00000000000000E+00   0.00000000000000E+00   0.00000000000000E+00   0.00000000000000E+00  -1.82658832792948E-13
     -1.23025917200108E-10  -1.23208576032901E-10  -1.17539630465860E-17   4.00000000000000E-03   4.00000000000000E-03
      0.00000000000000E+00   0.00000000000000E+00   0.00000000000000E+00   0.00000000000000E+00   0.00000000000000E+00
     -8.02578391176901E-17   2.90000000000000E-01   2.90000000000000E-01   0.00000000000000E+00   0.00000000000000E+00
      1.23201927740927E-10   6.64829197495208E-15   1.23208576032901E-10   1.59857848973613E-17   2.90000000000000E-01
      2.90000000000000E-01   0.00000000000000E+00   0.00000000000000E+00   0.00000000000000E+00   0.00000000000000E+00
      0.00000000000000E+00   7.60260172669148E-17
      2.00000000000000E-02
      0.00000000000000E+00   0.00000000000000E+00   0.00000000000000E+00   0.00000000000000E+00  -1.83914770845658E-13
     -1.14174950701259E-10  -1.14358865472104E-10  -1.17977620535913E-17   8.00000000000000E-03   8.00000000000000E-03
      0.00000000000000E+00   0.00000000000000E+00   0.00000000000000E+00   0.00000000000000E+00   0.00000000000000E+00
     -7.91216293488733E-17   2.90000000000000E-01   2.90000000000000E-01   0.00000000000000E+00   0.00000000000000E+00
      1.14352245705000E-10   6.61976710387730E-15   1.14358865472104E-10   1.59429526440767E-17   2.90000000000000E-01
      2.90000000000000E-01   0.00000000000000E+00   0.00000000000000E+00   0.00000000000000E+00   0.00000000000000E+00
      0.00000000000000E+00   7.49764387583879E-17
      3.00000000000000E-02
      0.00000000000000E+00   0.00000000000000E+00   0.00000000000000E+00   0.00000000000000E+00  -1.85173058634917E-13
     -1.05891028520360E-10  -1.06076201578995E-10  -1.18415395001016E-17   1.20000000000000E-02   1.20000000000000E-02
      0.00000000000000E+00   0.00000000000000E+00   0.00000000000000E+00   0.00000000000000E+00   0.00000000000000E+00
     -7.79854284499655E-17   2.90000000000000E-01   2.90000000000000E-01   0.00000000000000E+00   0.00000000000000E+00
      1.06069610415391E-10   6.59116360310178E-15   1.06076201578995E-10   1.59001165626959E-17   2.90000000000000E-01
      2.90000000000000E-01   0.00000000000000E+00   0.00000000000000E+00   0.00000000000000E+00   0.00000000000000E+00
      0.00000000000000E+00   7.39268513873712E-17
      4.00000000000000E-02
      0.00000000000000E+00   0.00000000000000E+00   0.00000000000000E+00   0.00000000000000E+00  -1.86433687691195E-13
     -9.81431376978664E-11  -9.83295713855576E-11  -1.18852958185768E-17   1.60000000000000E-02   1.60000000000000E-02
      0.00000000000000E+00   0.00000000000000E+00   0.00000000000000E+00   0.00000000000000E+00   0.00000000000000E+00
     -7.68492361717245E-17   2.90000000000000E-01   2.90000000000000E-01   0.00000000000000E+00   0.00000000000000E+00
      9.83230088961744E-11   6.56248938326747E-15   9.83295713855576E-11   1.58572765877751E-17   2.90000000000000E-01
      2.90000000000000E-01   0.00000000000000E+00   0.00000000000000E+00   0.00000000000000E+00   0.00000000000000E+00
      0.00000000000000E+00   7.28772554025263E-17
      5.00000000000000E-02
      0.00000000000000E+00   0.00000000000000E+00   0.00000000000000E+00   0.00000000000000E+00  -1.87696648089313E-13
     -9.09016287893269E-11  -9.10893254374162E-11  -1.19290314317534E-17   2.00000000000000E-02   2.00000000000000E-02
      0.00000000000000E+00   0.00000000000000E+00   0.00000000000000E+00   0.00000000000000E+00   0.00000000000000E+00
     -7.57130522693898E-17   2.90000000000000E-01   2.90000000000000E-01   0.00000000000000E+00   0.00000000000000E+00
      9.10827916856741E-11   6.53375174233454E-15   9.10893254374164E-11   1.58144326530660E-17   2.90000000000000E-01
      2.90000000000000E-01   0.00000000000000E+00   0.00000000000000E+00   0.00000000000000E+00   0.00000000000000E+00
      0.00000000000000E+00   7.18276510480772E-17
      6.00000000000000E-02
      0.00000000000000E+00   0.00000000000000E+00   0.00000000000000E+00   0.00000000000000E+00  -1.88961928601591E-13
     -8.41381731445342E-11  -8.43271350731358E-11  -1.19727467528781E-17   2.40000000000000E-02   2.40000000000000E-02
      0.00000000000000E+00   0.00000000000000E+00   0.00000000000000E+00   0.00000000000000E+00   0.00000000000000E+00
     -7.45768765025402E-17   2.90000000000000E-01   2.90000000000000E-01   0.00000000000000E+00   0.00000000000000E+00
      8.43206301157525E-11   6.50495738335571E-15   8.43271350731359E-11   1.57715846914686E-17   2.90000000000000E-01
      2.90000000000000E-01   0.00000000000000E+00   0.00000000000000E+00   0.00000000000000E+00   0.00000000000000E+00
      0.00000000000000E+00   7.07780385639497E-17
      7.00000000000000E-02
      0.00000000000000E+00   0.00000000000000E+00   0.00000000000000E+00   0.00000000000000E+00  -1.90229516836942E-13
     -7.78257208483692E-11  -7.80159503652061E-11  -1.20164421859365E-17   2.80000000000000E-02   2.80000000000000E-02
      0.00000000000000E+00   0.00000000000000E+00   0.00000000000000E+00   0.00000000000000E+00   0.00000000000000E+00
     -7.34407086349548E-17   2.90000000000000E-01   2.90000000000000E-01   0.00000000000000E+00   0.00000000000000E+00
      7.80094742526940E-11   6.47611251220421E-15   7.80159503652062E-11   1.57287326349841E-17   2.90000000000000E-01
      2.90000000000000E-01   0.00000000000000E+00   0.00000000000000E+00   0.00000000000000E+00   0.00000000000000E+00
      0.00000000000000E+00   6.97284181859072E-17
      8.00000000000000E-02
      0.00000000000000E+00   0.00000000000000E+00   0.00000000000000E+00   0.00000000000000E+00  -1.91499399367740E-13
     -7.19384593285351E-11  -7.21299587279028E-11  -1.20601181258749E-17   3.20000000000000E-02   3.20000000000000E-02
      0.00000000000000E+00   0.00000000000000E+00   0.00000000000000E+00   0.00000000000000E+00   0.00000000000000E+00
     -7.23045484344779E-17   2.90000000000000E-01   2.90000000000000E-01   0.00000000000000E+00   0.00000000000000E+00
      7.21235115050537E-11   6.44722284912403E-15   7.21299587279029E-11   1.56858764146694E-17   2.90000000000000E-01
      2.90000000000000E-01   0.00000000000000E+00   0.00000000000000E+00   0.00000000000000E+00   0.00000000000000E+00
      0.00000000000000E+00   6.86787901456834E-17
      9.00000000000000E-02
      0.00000000000000E+00   0.00000000000000E+00   0.00000000000000E+00   0.00000000000000E+00  -1.92771561845391E-13
     -6.64517726361200E-11  -6.66445441979654E-11  -1.21037749588179E-17   3.60000000000000E-02   3.60000000000000E-02
      0.00000000000000E+00   0.00000000000000E+00   0.00000000000000E+00   0.00000000000000E+00   0.00000000000000E+00
     -7.11683956728863E-17   2.90000000000000E-01   2.90000000000000E-01   0.00000000000000E+00   0.00000000000000E+00
      6.66381259042963E-11   6.41829366911179E-15   6.66445441979654E-11   1.56430159605928E-17   2.90000000000000E-01
      2.90000000000000E-01   0.00000000000000E+00   0.00000000000000E+00   0.00000000000000E+00   0.00000000000000E+00
      0.00000000000000E+00   6.76291546711114E-17
      1.00000000000000E-01
      0.00000000000000E+00   0.00000000000000E+00   0.00000000000000E+00   0.00000000000000E+00  -1.94045989105635E-13
     -6.13422014051397E-11  -6.15362473942453E-11  -1.21474130622800E-17   4.00000000000000E-02   4.00000000000000E-02
      0.00000000000000E+00   0.00000000000000E+00   0.00000000000000E+00   0.00000000000000E+00   0.00000000000000E+00
     -7.00322501257605E-17   2.90000000000000E-01   2.90000000000000E-01   0.00000000000000E+00   0.00000000000000E+00
      6.15298580643997E-11   6.38932984566049E-15   6.15362473942454E-11   1.56001512017902E-17   2.90000000000000E-01
      2.90000000000000E-01   0.00000000000000E+00   0.00000000000000E+00   0.00000000000000E+00   0.00000000000000E+00
      0.00000000000000E+00   6.65795119862503E-17
      1.10000000000000E-01
      0.00000000000000E+00   0.00000000000000E+00   0.00000000000000E+00   0.00000000000000E+00  -1.95322665264228E-13
     -5.65874034974730E-11  -5.67827261627373E-11  -1.21910328053715E-17   4.40000000000000E-02   4.40000000000000E-02
      0.00000000000000E+00   0.00000000000000E+00   0.00000000000000E+00   0.00000000000000E+00   0.00000000000000E+00
     -6.88961115723594E-17   2.90000000000000E-01   2.90000000000000E-01   0.00000000000000E+00   0.00000000000000E+00
      5.67763658268654E-11   6.36033587193937E-15   5.67827261627373E-11   1.55572820662217E-17   2.90000000000000E-01
      2.90000000000000E-01   0.00000000000000E+00   0.00000000000000E+00   0.00000000000000E+00   0.00000000000000E+00
      0.00000000000000E+00   6.55298623115092E-17
      1.20000000000000E-01
      0.00000000000000E+00   0.00000000000000E+00   0.00000000000000E+00   0.00000000000000E+00  -1.96601573804131E-13
     -5.21661153398548E-11  -5.23627169136590E-11  -1.22346345490009E-17   4.80000000000000E-02   4.80000000000000E-02
      0.00000000000000E+00   0.00000000000000E+00   0.00000000000000E+00   0.00000000000000E+00   0.00000000000000E+00
     -6.77599797954963E-17   2.90000000000000E-01   2.90000000000000E-01   0.00000000000000E+00   0.00000000000000E+00
      5.23563855977485E-11   6.33131591050853E-15   5.23627169136590E-11   1.55144084807297E-17   2.90000000000000E-01
      2.90000000000000E-01   0.00000000000000E+00   0.00000000000000E+00   0.00000000000000E+00   0.00000000000000E+00
      0.00000000000000E+00   6.44802058637675E-17
      1.30000000000000E-01
      0.00000000000000E+00   0.00000000000000E+00   0.00000000000000E+00   0.00000000000000E+00  -1.97882697654886E-13
     -4.80581139595726E-11  -4.82559966572275E-11  -1.22782186460701E-17   5.20000000000000E-02   5.20000000000000E-02
      0.00000000000000E+00   0.00000000000000E+00   0.00000000000000E+00   0.00000000000000E+00   0.00000000000000E+00
     -6.66238545814198E-17   2.90000000000000E-01   2.90000000000000E-01   0.00000000000000E+00   0.00000000000000E+00
      4.82496943834270E-11   6.30227380043397E-15   4.82559966572274E-11   1.54715303709964E-17   2.90000000000000E-01
      2.90000000000000E-01   0.00000000000000E+00   0.00000000000000E+00   0.00000000000000E+00   0.00000000000000E+00
      0.00000000000000E+00   6.34305428564934E-17
      1.40000000000000E-01
      0.00000000000000E+00   0.00000000000000E+00   0.00000000000000E+00   0.00000000000000E+00  -1.99166019264543E-13
     -4.42441797256825E-11  -4.44433457449470E-11  -1.23217854416667E-17   5.60000000000000E-02   5.60000000000000E-02
      0.00000000000000E+00   0.00000000000000E+00   0.00000000000000E+00   0.00000000000000E+00   0.00000000000000E+00
     -6.54877357196956E-17   2.90000000000000E-01   2.90000000000000E-01   0.00000000000000E+00   0.00000000000000E+00
      4.44370725318532E-11   6.27321309384874E-15   4.44433457449470E-11   1.54286476615024E-17   2.90000000000000E-01
      2.90000000000000E-01   0.00000000000000E+00   0.00000000000000E+00   0.00000000000000E+00   0.00000000000000E+00
      0.00000000000000E+00   6.23808734998599E-17
      1.50000000000000E-01
      0.00000000000000E+00   0.00000000000000E+00   0.00000000000000E+00   0.00000000000000E+00  -2.00451520665316E-13
     -4.07060598024167E-11  -4.09065113230820E-11  -1.23653352732508E-17   6.00000000000000E-02   6.00000000000000E-02
      0.00000000000000E+00   0.00000000000000E+00   0.00000000000000E+00   0.00000000000000E+00   0.00000000000000E+00
     -6.43516230030917E-17   2.90000000000000E-01   2.90000000000000E-01   0.00000000000000E+00   0.00000000000000E+00
      4.09002671859974E-11   6.24413708457195E-15   4.09065113230820E-11   1.53857602754851E-17   2.90000000000000E-01
      2.90000000000000E-01   0.00000000000000E+00   0.00000000000000E+00   0.00000000000000E+00   0.00000000000000E+00
      0.00000000000000E+00   6.13311980008575E-17
      1.60000000000000E-01
      0.00000000000000E+00   0.00000000000000E+00   0.00000000000000E+00   0.00000000000000E+00  -2.01739183533069E-13
     -3.74264323213688E-11  -3.76281715049019E-11  -1.24088684708368E-17   6.40000000000000E-02   6.40000000000000E-02
      0.00000000000000E+00   0.00000000000000E+00   0.00000000000000E+00   0.00000000000000E+00   0.00000000000000E+00
     -6.32155162274663E-17   2.90000000000000E-01   2.90000000000000E-01   0.00000000000000E+00   0.00000000000000E+00
      3.76219564560953E-11   6.21504880662703E-15   3.76281715049019E-11   1.53428681348975E-17   2.90000000000000E-01
      2.90000000000000E-01   0.00000000000000E+00   0.00000000000000E+00   0.00000000000000E+00   0.00000000000000E+00
      0.00000000000000E+00   6.02815165634057E-17
      1.70000000000000E-01
      0.00000000000000E+00   0.00000000000000E+00   0.00000000000000E+00   0.00000000000000E+00  -2.03028989241338E-13
     -3.43888712790025E-11  -3.45919002682439E-11  -1.24523853571710E-17   6.80000000000000E-02   6.80000000000000E-02
      0.00000000000000E+00   0.00000000000000E+00   0.00000000000000E+00   0.00000000000000E+00   0.00000000000000E+00
     -6.20794151916572E-17   2.90000000000000E-01   2.90000000000000E-01   0.00000000000000E+00   0.00000000000000E+00
      3.45857143171525E-11   6.18595109138528E-15   3.45919002682439E-11   1.52999711603671E-17   2.90000000000000E-01
      2.90000000000000E-01   0.00000000000000E+00   0.00000000000000E+00   0.00000000000000E+00   0.00000000000000E+00
      0.00000000000000E+00   5.92318293884610E-17
      1.80000000000000E-01
      0.00000000000000E+00   0.00000000000000E+00   0.00000000000000E+00   0.00000000000000E+00  -2.04320918910438E-13
     -3.15778121655987E-11  -3.17821330845091E-11  -1.24958862479053E-17   7.20000000000000E-02   7.20000000000000E-02
      0.00000000000000E+00   0.00000000000000E+00   0.00000000000000E+00   0.00000000000000E+00   0.00000000000000E+00
     -6.09433196973741E-17   2.90000000000000E-01   2.90000000000000E-01   0.00000000000000E+00   0.00000000000000E+00
      3.17759762379583E-11   6.15684655083125E-15   3.17821330845091E-11   1.52570692711549E-17   2.90000000000000E-01
      2.90000000000000E-01   0.00000000000000E+00   0.00000000000000E+00   0.00000000000000E+00   0.00000000000000E+00
      0.00000000000000E+00   5.81821366741246E-17
      1.90000000000000E-01
      0.00000000000000E+00   0.00000000000000E+00   0.00000000000000E+00   0.00000000000000E+00  -2.05614953451860E-13
     -2.89785183317554E-11  -2.91841332852073E-11  -1.25393714517659E-17   7.60000000000000E-02   7.60000000000000E-02
      0.00000000000000E+00   0.00000000000000E+00   0.00000000000000E+00   0.00000000000000E+00   0.00000000000000E+00
     -5.98072295490931E-17   2.90000000000000E-01   2.90000000000000E-01   0.00000000000000E+00   0.00000000000000E+00
      2.91780055475954E-11   6.12773761182522E-15   2.91841332852073E-11   1.52141623851135E-17   2.90000000000000E-01
      2.90000000000000E-01   0.00000000000000E+00   0.00000000000000E+00   0.00000000000000E+00   0.00000000000000E+00
      0.00000000000000E+00   5.71324386157455E-17
      2.00000000000000E-01
      0.00000000000000E+00   0.00000000000000E+00   0.00000000000000E+00   0.00000000000000E+00  -2.06911073608749E-13
     -2.65770480980600E-11  -2.67839591716688E-11  -1.25828412707180E-17   8.00000000000000E-02   8.00000000000000E-02
      0.00000000000000E+00   0.00000000000000E+00   0.00000000000000E+00   0.00000000000000E+00   0.00000000000000E+00
     -5.86711445539529E-17   2.90000000000000E-01   2.90000000000000E-01   0.00000000000000E+00   0.00000000000000E+00
      2.67778605451340E-11   6.09862653473310E-15   2.67839591716688E-11   1.51712504186466E-17   2.90000000000000E-01
      2.90000000000000E-01   0.00000000000000E+00   0.00000000000000E+00   0.00000000000000E+00   0.00000000000000E+00
      0.00000000000000E+00   5.60827354060243E-17
      2.10000000000000E-01
      0.00000000000000E+00   0.00000000000000E+00   0.00000000000000E+00   0.00000000000000E+00  -2.08209259992277E-13
     -2.43602226132648E-11  -2.45684318732571E-11  -1.26262960001267E-17   8.40000000000000E-02   8.40000000000000E-02
      0.00000000000000E+00   0.00000000000000E+00   0.00000000000000E+00   0.00000000000000E+00   0.00000000000000E+00
     -5.75350645216530E-17   2.90000000000000E-01   2.90000000000000E-01   0.00000000000000E+00   0.00000000000000E+00
      2.45623623578464E-11   6.06951541072114E-15   2.45684318732571E-11   1.51283332866668E-17   2.90000000000000E-01
      2.90000000000000E-01   0.00000000000000E+00   0.00000000000000E+00   0.00000000000000E+00   0.00000000000000E+00
      0.00000000000000E+00   5.50330272351129E-17
      2.20000000000000E-01
      0.00000000000000E+00   0.00000000000000E+00   0.00000000000000E+00   0.00000000000000E+00  -2.09509493114774E-13
     -2.23155944659679E-11  -2.25251039590827E-11  -1.26697359289135E-17   8.80000000000000E-02   8.80000000000000E-02
      0.00000000000000E+00   0.00000000000000E+00   0.00000000000000E+00   0.00000000000000E+00   0.00000000000000E+00
     -5.63989892643541E-17   2.90000000000000E-01   2.90000000000000E-01   0.00000000000000E+00   0.00000000000000E+00
      2.25190635528943E-11   6.04040618843757E-15   2.25251039590827E-11   1.50854109025536E-17   2.90000000000000E-01
      2.90000000000000E-01   0.00000000000000E+00   0.00000000000000E+00   0.00000000000000E+00   0.00000000000000E+00
      0.00000000000000E+00   5.39833142907141E-17
      2.30000000000000E-01
      0.00000000000000E+00   0.00000000000000E+00   0.00000000000000E+00   0.00000000000000E+00  -2.10811753419616E-13
     -2.04314170542822E-11  -2.06422288077019E-11  -1.27131613397093E-17   9.20000000000000E-02   9.20000000000000E-02
      0.00000000000000E+00   0.00000000000000E+00   0.00000000000000E+00   0.00000000000000E+00   0.00000000000000E+00
     -5.52629185965802E-17   2.90000000000000E-01   2.90000000000000E-01   0.00000000000000E+00   0.00000000000000E+00
      2.06362175070106E-11   6.01130069133283E-15   2.06422288077019E-11   1.50424831781117E-17   2.90000000000000E-01
      2.90000000000000E-01   0.00000000000000E+00   0.00000000000000E+00   0.00000000000000E+00   0.00000000000000E+00
      0.00000000000000E+00   5.29335967581778E-17
      2.40000000000000E-01
      0.00000000000000E+00   0.00000000000000E+00   0.00000000000000E+00   0.00000000000000E+00  -2.12116021308253E-13
     -1.86966147175468E-11  -1.89087307388551E-11  -1.27565725090031E-17   9.60000000000000E-02   9.60000000000000E-02
      0.00000000000000E+00   0.00000000000000E+00   0.00000000000000E+00   0.00000000000000E+00   0.00000000000000E+00
     -5.41268523351221E-17   2.90000000000000E-01   2.90000000000000E-01   0.00000000000000E+00   0.00000000000000E+00
      1.89027485382447E-11   5.98220061039941E-15   1.89087307388551E-11   1.49995500235279E-17   2.90000000000000E-01
      2.90000000000000E-01   0.00000000000000E+00   0.00000000000000E+00   0.00000000000000E+00   0.00000000000000E+00
      0.00000000000000E+00   5.18838748205973E-17
      2.50000000000000E-01
      0.00000000000000E+00   0.00000000000000E+00   0.00000000000000E+00   0.00000000000000E+00  -2.13422277164522E-13
     -1.71007536337011E-11  -1.73141759108656E-11  -1.27999697072879E-17   1.00000000000000E-01   1.00000000000000E-01
      0.00000000000000E+00   0.00000000000000E+00   0.00000000000000E+00   0.00000000000000E+00   0.00000000000000E+00
     -5.29907902989431E-17   2.90000000000000E-01   2.90000000000000E-01   0.00000000000000E+00   0.00000000000000E+00
      1.73082228033386E-11   5.95310752697518E-15   1.73141759108656E-11   1.49566113473283E-17   2.90000000000000E-01
      2.90000000000000E-01   0.00000000000000E+00   0.00000000000000E+00   0.00000000000000E+00   0.00000000000000E+00
      0.00000000000000E+00   5.08341486589026E-17
      2.60000000000000E-01
      0.00000000000000E+00   0.00000000000000E+00   0.00000000000000E+00   0.00000000000000E+00  -2.14730501376669E-13
     -1.56340134853418E-11  -1.58487439867184E-11  -1.28433531992019E-17   1.04000000000000E-01   1.04000000000000E-01
      0.00000000000000E+00   0.00000000000000E+00   0.00000000000000E+00   0.00000000000000E+00   0.00000000000000E+00
     -5.18547323090856E-17   2.90000000000000E-01   2.90000000000000E-01   0.00000000000000E+00   0.00000000000000E+00
      1.58428199637938E-11   5.92402292470126E-15   1.58487439867185E-11   1.49136670563344E-17   2.90000000000000E-01
      2.90000000000000E-01   0.00000000000000E+00   0.00000000000000E+00   0.00000000000000E+00   0.00000000000000E+00
      0.00000000000000E+00   4.97844184519531E-17
      2.70000000000000E-01
      0.00000000000000E+00   0.00000000000000E+00   0.00000000000000E+00   0.00000000000000E+00  -2.16040674357125E-13
     -1.42871598969625E-11  -1.45032005713196E-11  -1.28867232436670E-17   1.08000000000000E-01   1.08000000000000E-01
      0.00000000000000E+00   0.00000000000000E+00   0.00000000000000E+00   0.00000000000000E+00   0.00000000000000E+00
     -5.07186781885801E-17   2.90000000000000E-01   2.90000000000000E-01   0.00000000000000E+00   0.00000000000000E+00
      1.44973056231323E-11   5.89494818727321E-15   1.45032005713196E-11   1.48707170556192E-17   2.90000000000000E-01
      2.90000000000000E-01   0.00000000000000E+00   0.00000000000000E+00   0.00000000000000E+00   0.00000000000000E+00
      0.00000000000000E+00   4.87346843766280E-17
      2.80000000000000E-01
      0.00000000000000E+00   0.00000000000000E+00   0.00000000000000E+00   0.00000000000000E+00  -2.17352776560250E-13
     -1.30515176453489E-11  -1.32688704219092E-11  -1.29300800940235E-17   1.12000000000000E-01   1.12000000000000E-01
      0.00000000000000E+00   0.00000000000000E+00   0.00000000000000E+00   0.00000000000000E+00   0.00000000000000E+00
     -4.95826277623546E-17   2.90000000000000E-01   2.90000000000000E-01   0.00000000000000E+00   0.00000000000000E+00
      1.32630045372988E-11   5.86588461036588E-15   1.32688704219092E-11   1.48277612484619E-17   2.90000000000000E-01
      2.90000000000000E-01   0.00000000000000E+00   0.00000000000000E+00   0.00000000000000E+00   0.00000000000000E+00
      0.00000000000000E+00   4.76849466079161E-17
      2.90000000000000E-01
      0.00000000000000E+00   0.00000000000000E+00   0.00000000000000E+00   0.00000000000000E+00  -2.18666788498352E-13
     -1.19189446444749E-11  -1.21376114329732E-11  -1.29734239981616E-17   1.16000000000000E-01   1.16000000000000E-01
      0.00000000000000E+00   0.00000000000000E+00   0.00000000000000E+00   0.00000000000000E+00   0.00000000000000E+00
     -4.84465808571460E-17   2.90000000000000E-01   2.90000000000000E-01   0.00000000000000E+00   0.00000000000000E+00
      1.21317745995557E-11   5.83683341750743E-15   1.21376114329732E-11   1.47847995363032E-17   2.90000000000000E-01
      2.90000000000000E-01   0.00000000000000E+00   0.00000000000000E+00   0.00000000000000E+00   0.00000000000000E+00
      0.00000000000000E+00   4.66352053190043E-17
      3.00000000000000E-01
      0.00000000000000E+00   0.00000000000000E+00   0.00000000000000E+00   0.00000000000000E+00  -2.19982690755941E-13
     -1.08818067056302E-11  -1.11017893963861E-11  -1.30167551986493E-17   1.20000000000000E-01   1.20000000000000E-01
      0.00000000000000E+00   0.00000000000000E+00   0.00000000000000E+00   0.00000000000000E+00   0.00000000000000E+00
     -4.73105373014128E-17   2.90000000000000E-01   2.90000000000000E-01   0.00000000000000E+00   0.00000000000000E+00
      1.10959816006307E-11   5.80779575542224E-15   1.11017893963861E-11   1.47418318186985E-17   2.90000000000000E-01
      2.90000000000000E-01   0.00000000000000E+00   0.00000000000000E+00   0.00000000000000E+00   0.00000000000000E+00
      0.00000000000000E+00   4.55854606813637E-17
      3.10000000000000E-01
      0.00000000000000E+00   0.00000000000000E+00   0.00000000000000E+00   0.00000000000000E+00  -2.21300464002502E-13
     -9.93295307295725E-12  -1.01542535369598E-11  -1.30600739328581E-17   1.24000000000000E-01   1.24000000000000E-01
      0.00000000000000E+00   0.00000000000000E+00   0.00000000000000E+00   0.00000000000000E+00   0.00000000000000E+00
     -4.61744969252488E-17   2.90000000000000E-01   2.90000000000000E-01   0.00000000000000E+00   0.00000000000000E+00
      1.01484747642563E-11   5.77877270343279E-15   1.01542535369597E-11   1.46988579932708E-17   2.90000000000000E-01
      2.90000000000000E-01   0.00000000000000E+00   0.00000000000000E+00   0.00000000000000E+00   0.00000000000000E+00
      0.00000000000000E+00   4.45357128648361E-17
      3.20000000000000E-01
      0.00000000000000E+00   0.00000000000000E+00   0.00000000000000E+00   0.00000000000000E+00  -2.22620089003889E-13
     -9.06569273390461E-12  -9.28831282290850E-12  -1.31033804330842E-17   1.28000000000000E-01   1.28000000000000E-01
      0.00000000000000E+00   0.00000000000000E+00   0.00000000000000E+00   0.00000000000000E+00   0.00000000000000E+00
     -4.50384595602980E-17   2.90000000000000E-01   2.90000000000000E-01   0.00000000000000E+00   0.00000000000000E+00
      9.28256305762550E-12   5.74976528299355E-15   9.28831282290849E-12   1.46558779556638E-17   2.90000000000000E-01
      2.90000000000000E-01   0.00000000000000E+00   0.00000000000000E+00   0.00000000000000E+00   0.00000000000000E+00
      0.00000000000000E+00   4.34859620377184E-17
      3.30000000000000E-01
      0.00000000000000E+00   0.00000000000000E+00   0.00000000000000E+00   0.00000000000000E+00  -2.23941546632523E-13
     -8.27377150348397E-12  -8.49771305011650E-12  -1.31466749266677E-17   1.32000000000000E-01   1.32000000000000E-01
      0.00000000000000E+00   0.00000000000000E+00   0.00000000000000E+00   0.00000000000000E+00   0.00000000000000E+00
     -4.39024250396706E-17   2.90000000000000E-01   2.90000000000000E-01   0.00000000000000E+00   0.00000000000000E+00
      8.49199227565670E-12   5.72077445980521E-15   8.49771305011650E-12   1.46128915994922E-17   2.90000000000000E-01
      2.90000000000000E-01   0.00000000000000E+00   0.00000000000000E+00   0.00000000000000E+00   0.00000000000000E+00
      0.00000000000000E+00   4.24362083668461E-17
      3.40000000000000E-01
      0.00000000000000E+00   0.00000000000000E+00   0.00000000000000E+00   0.00000000000000E+00  -2.25264817876277E-13
     -7.55134988060874E-12  -7.77661469848501E-12  -1.31899576361086E-17   1.36000000000000E-01   1.36000000000000E-01
      0.00000000000000E+00   0.00000000000000E+00   0.00000000000000E+00   0.00000000000000E+00   0.00000000000000E+00
     -4.27663931978600E-17   2.90000000000000E-01   2.90000000000000E-01   0.00000000000000E+00   0.00000000000000E+00
      7.77092289733628E-12   5.69180114874382E-15   7.77661469848502E-12   1.45698988162929E-17   2.90000000000000E-01
      2.90000000000000E-01   0.00000000000000E+00   0.00000000000000E+00   0.00000000000000E+00   0.00000000000000E+00
      0.00000000000000E+00   4.13864520176757E-17
      3.50000000000000E-01
      0.00000000000000E+00   0.00000000000000E+00   0.00000000000000E+00   0.00000000000000E+00  -2.26589883846478E-13
     -6.89298167415211E-12  -7.11957155799859E-12  -1.32332287791799E-17   1.40000000000000E-01   1.40000000000000E-01
      0.00000000000000E+00   0.00000000000000E+00   0.00000000000000E+00   0.00000000000000E+00   0.00000000000000E+00
     -4.16303638706611E-17   2.90000000000000E-01   2.90000000000000E-01   0.00000000000000E+00   0.00000000000000E+00
      7.11390871178104E-12   5.66284621755677E-15   7.11957155799860E-12   1.45268994954743E-17   2.90000000000000E-01
      2.90000000000000E-01   0.00000000000000E+00   0.00000000000000E+00   0.00000000000000E+00   0.00000000000000E+00
      0.00000000000000E+00   4.03366931543666E-17
      3.60000000000000E-01
      0.00000000000000E+00   0.00000000000000E+00   0.00000000000000E+00   0.00000000000000E+00  -2.27916725784830E-13
     -6.29359339575083E-12  -6.52151012153566E-12  -1.32764885690376E-17   1.44000000000000E-01   1.44000000000000E-01
      0.00000000000000E+00   0.00000000000000E+00   0.00000000000000E+00   0.00000000000000E+00   0.00000000000000E+00
     -4.04943368950890E-17   2.90000000000000E-01   2.90000000000000E-01   0.00000000000000E+00   0.00000000000000E+00
      6.51587621104208E-12   5.63391049357322E-15   6.52151012153565E-12   1.44838935242648E-17   2.90000000000000E-01
      2.90000000000000E-01   0.00000000000000E+00   0.00000000000000E+00   0.00000000000000E+00   0.00000000000000E+00
      0.00000000000000E+00   3.92869319398618E-17
      3.70000000000000E-01
      0.00000000000000E+00   0.00000000000000E+00   0.00000000000000E+00   0.00000000000000E+00  -2.29245325069560E-13