DF-ISE text

Info {
  version   = 1.0
  type      = xyplot
  datasets  = [
    "time"
    "source OuterVoltage" "source InnerVoltage" "source QuasiFermiPotential" "source DisplacementCurrent" "source eCurrent"
    "source hCurrent" "source TotalCurrent" "source Charge" "topGate OuterVoltage" "topGate InnerVoltage"
    "topGate QuasiFermiPotential" "topGate DisplacementCurrent" "topGate eCurrent" "topGate hCurrent" "topGate TotalCurrent"
    "topGate Charge" "drain OuterVoltage" "drain InnerVoltage" "drain QuasiFermiPotential" "drain DisplacementCurrent"
    "drain eCurrent" "drain hCurrent" "drain TotalCurrent" "drain Charge" "bottomGate OuterVoltage"
    "bottomGate InnerVoltage" "bottomGate QuasiFermiPotential" "bottomGate DisplacementCurrent" "bottomGate eCurrent" "bottomGate hCurrent"
    "bottomGate TotalCurrent" "bottomGate Charge" ]
  functions = [
    Time
    OuterVoltage InnerVoltage QuasiFermiPotential DisplacementCurrent eCurrent
    hCurrent TotalCurrent Charge OuterVoltage InnerVoltage
    QuasiFermiPotential DisplacementCurrent eCurrent hCurrent TotalCurrent
    Charge OuterVoltage InnerVoltage QuasiFermiPotential DisplacementCurrent
    eCurrent hCurrent TotalCurrent Charge OuterVoltage
    InnerVoltage QuasiFermiPotential DisplacementCurrent eCurrent hCurrent
    TotalCurrent Charge ]
}

Data {
      1.00000000000000E-02
      0.00000000000000E+00   0.00000000000000E+00   0.00000000000000E+00   0.00000000000000E+00  -1.79541229547479E-13
     -1.74038717710800E-10  -1.74218258940347E-10  -1.16443823921013E-17   4.00000000000000E-03   4.00000000000000E-03
      0.00000000000000E+00   0.00000000000000E+00   0.00000000000000E+00   0.00000000000000E+00   0.00000000000000E+00
     -7.79548916073972E-17   3.20000000000000E-01   3.20000000000000E-01   0.00000000000000E+00   0.00000000000000E+00
      1.74211136753830E-10   7.12218651713140E-15   1.74218258940348E-10   1.67347794576511E-17   2.80000000000000E-01
      2.80000000000000E-01   0.00000000000000E+00   0.00000000000000E+00   0.00000000000000E+00   0.00000000000000E+00
      0.00000000000000E+00   7.28644945418474E-17
      2.00000000000000E-02
      0.00000000000000E+00   0.00000000000000E+00   0.00000000000000E+00   0.00000000000000E+00  -1.80790408169630E-13
     -1.62123611271765E-10  -1.62304401679935E-10  -1.16882372510061E-17   8.00000000000000E-03   8.00000000000000E-03
      0.00000000000000E+00   0.00000000000000E+00   0.00000000000000E+00   0.00000000000000E+00   0.00000000000000E+00
     -7.68186834680914E-17   3.20000000000000E-01   3.20000000000000E-01   0.00000000000000E+00   0.00000000000000E+00
      1.62297304313657E-10   7.09736627835100E-15   1.62304401679935E-10   1.66920063336041E-17   2.80000000000000E-01
      2.80000000000000E-01   0.00000000000000E+00   0.00000000000000E+00   0.00000000000000E+00   0.00000000000000E+00
      0.00000000000000E+00   7.18149143854934E-17
      3.00000000000000E-02
      0.00000000000000E+00   0.00000000000000E+00   0.00000000000000E+00   0.00000000000000E+00  -1.82042026960614E-13
     -1.50930814661301E-10  -1.51112856688261E-10  -1.17320694243928E-17   1.20000000000000E-02   1.20000000000000E-02
      0.00000000000000E+00   0.00000000000000E+00   0.00000000000000E+00   0.00000000000000E+00   0.00000000000000E+00
     -7.56824852205688E-17   3.20000000000000E-01   3.20000000000000E-01   0.00000000000000E+00   0.00000000000000E+00
      1.51105784541379E-10   7.07214688247239E-15   1.51112856688261E-10   1.66492302988331E-17   2.80000000000000E-01
      2.80000000000000E-01   0.00000000000000E+00   0.00000000000000E+00   0.00000000000000E+00   0.00000000000000E+00
      0.00000000000000E+00   7.07653243461284E-17
      4.00000000000000E-02
      0.00000000000000E+00   0.00000000000000E+00   0.00000000000000E+00   0.00000000000000E+00  -1.83296075158925E-13
     -1.40423106853330E-10  -1.40606402928489E-10  -1.17758793700818E-17   1.60000000000000E-02   1.60000000000000E-02
      0.00000000000000E+00   0.00000000000000E+00   0.00000000000000E+00   0.00000000000000E+00   0.00000000000000E+00
     -7.45462966106690E-17   3.20000000000000E-01   3.20000000000000E-01   0.00000000000000E+00   0.00000000000000E+00
      1.40599356367201E-10   7.04656128796536E-15   1.40606402928489E-10   1.66064513035151E-17   2.80000000000000E-01
      2.80000000000000E-01   0.00000000000000E+00   0.00000000000000E+00   0.00000000000000E+00   0.00000000000000E+00
      0.00000000000000E+00   6.97157246772357E-17
      5.00000000000000E-02
      0.00000000000000E+00   0.00000000000000E+00   0.00000000000000E+00   0.00000000000000E+00  -1.84552540675411E-13
     -1.30564797779406E-10  -1.30749350320081E-10  -1.18196675355598E-17   2.00000000000000E-02   2.00000000000000E-02
      0.00000000000000E+00   0.00000000000000E+00   0.00000000000000E+00   0.00000000000000E+00   0.00000000000000E+00
     -7.34101173892204E-17   3.20000000000000E-01   3.20000000000000E-01   0.00000000000000E+00   0.00000000000000E+00
      1.30742329680241E-10   7.02063983966804E-15   1.30749350320081E-10   1.65636692974186E-17   2.80000000000000E-01
      2.80000000000000E-01   0.00000000000000E+00   0.00000000000000E+00   0.00000000000000E+00   0.00000000000000E+00
      0.00000000000000E+00   6.86661156273615E-17
      6.00000000000000E-02
      0.00000000000000E+00   0.00000000000000E+00   0.00000000000000E+00   0.00000000000000E+00  -1.85811410236544E-13
     -1.21321684221500E-10  -1.21507495631737E-10  -1.18634343582287E-17   2.40000000000000E-02   2.40000000000000E-02
      0.00000000000000E+00   0.00000000000000E+00   0.00000000000000E+00   0.00000000000000E+00   0.00000000000000E+00
     -7.22739473118909E-17   3.20000000000000E-01   3.20000000000000E-01   0.00000000000000E+00   0.00000000000000E+00
      1.21500501221159E-10   6.99441057711241E-15   1.21507495631736E-10   1.65208842298600E-17   2.80000000000000E-01
      2.80000000000000E-01   0.00000000000000E+00   0.00000000000000E+00   0.00000000000000E+00   0.00000000000000E+00
      0.00000000000000E+00   6.76164974402596E-17
      7.00000000000000E-02
      0.00000000000000E+00   0.00000000000000E+00   0.00000000000000E+00   0.00000000000000E+00  -1.87072669515081E-13
     -1.12661006281192E-10  -1.12848078950707E-10  -1.19071802656486E-17   2.80000000000000E-02   2.80000000000000E-02
      0.00000000000000E+00   0.00000000000000E+00   0.00000000000000E+00   0.00000000000000E+00   0.00000000000000E+00
     -7.11377861390442E-17   3.20000000000000E-01   3.20000000000000E-01   0.00000000000000E+00   0.00000000000000E+00
      1.12841111051378E-10   6.96789932865422E-15   1.12848078950707E-10   1.64780960496610E-17   2.80000000000000E-01
      2.80000000000000E-01   0.00000000000000E+00   0.00000000000000E+00   0.00000000000000E+00   0.00000000000000E+00
      0.00000000000000E+00   6.65668703550317E-17
      8.00000000000000E-02
      0.00000000000000E+00   0.00000000000000E+00   0.00000000000000E+00   0.00000000000000E+00  -1.88336303248756E-13
     -1.04551404432895E-10  -1.04739740736144E-10  -1.19509056757740E-17   3.20000000000000E-02   3.20000000000000E-02
      0.00000000000000E+00   0.00000000000000E+00   0.00000000000000E+00   0.00000000000000E+00   0.00000000000000E+00
     -7.00016336355994E-17   3.20000000000000E-01   3.20000000000000E-01   0.00000000000000E+00   0.00000000000000E+00
      1.04732799606233E-10   6.94112991093892E-15   1.04739740736144E-10   1.64353047051087E-17   2.80000000000000E-01
      2.80000000000000E-01   0.00000000000000E+00   0.00000000000000E+00   0.00000000000000E+00   0.00000000000000E+00
      0.00000000000000E+00   6.55172346062647E-17
      9.00000000000000E-02
      0.00000000000000E+00   0.00000000000000E+00   0.00000000000000E+00   0.00000000000000E+00  -1.89602295348504E-13
     -9.69628771686893E-11  -9.71524794640378E-11  -1.19946109971852E-17   3.60000000000000E-02   3.60000000000000E-02
      0.00000000000000E+00   0.00000000000000E+00   0.00000000000000E+00   0.00000000000000E+00   0.00000000000000E+00
     -6.88654895708945E-17   3.20000000000000E-01   3.20000000000000E-01   0.00000000000000E+00   0.00000000000000E+00
      9.71455653397507E-11   6.91412428714168E-15   9.71524794640378E-11   1.63925101439160E-17   2.80000000000000E-01
      2.80000000000000E-01   0.00000000000000E+00   0.00000000000000E+00   0.00000000000000E+00   0.00000000000000E+00
      0.00000000000000E+00   6.44675904241637E-17
      1.00000000000000E-01
      0.00000000000000E+00   0.00000000000000E+00   0.00000000000000E+00   0.00000000000000E+00  -1.90870628996717E-13
     -8.98667392428246E-11  -9.00576098718214E-11  -1.20382966293137E-17   4.00000000000000E-02   4.00000000000000E-02
      0.00000000000000E+00   0.00000000000000E+00   0.00000000000000E+00   0.00000000000000E+00   0.00000000000000E+00
     -6.77293537185532E-17   3.20000000000000E-01   3.20000000000000E-01   0.00000000000000E+00   0.00000000000000E+00
      9.00507229691447E-11   6.88690267671143E-15   9.00576098718214E-11   1.63497123131840E-17   2.80000000000000E-01
      2.80000000000000E-01   0.00000000000000E+00   0.00000000000000E+00   0.00000000000000E+00   0.00000000000000E+00
      0.00000000000000E+00   6.34179380346829E-17
      1.10000000000000E-01
      0.00000000000000E+00   0.00000000000000E+00   0.00000000000000E+00   0.00000000000000E+00  -1.92141286736719E-13
     -8.32355805243672E-11  -8.34277218111039E-11  -1.20819629626614E-17   4.40000000000000E-02   4.40000000000000E-02
      0.00000000000000E+00   0.00000000000000E+00   0.00000000000000E+00   0.00000000000000E+00   0.00000000000000E+00
     -6.65932258563557E-17   3.20000000000000E-01   3.20000000000000E-01   0.00000000000000E+00   0.00000000000000E+00
      8.34208623273631E-11   6.85948374087657E-15   8.34277218111040E-11   1.63069111593652E-17   2.80000000000000E-01
      2.80000000000000E-01   0.00000000000000E+00   0.00000000000000E+00   0.00000000000000E+00   0.00000000000000E+00
      0.00000000000000E+00   6.23682776596519E-17
      1.20000000000000E-01
      0.00000000000000E+00   0.00000000000000E+00   0.00000000000000E+00   0.00000000000000E+00  -1.93414250554035E-13
     -7.70432254663561E-11  -7.72366397169101E-11  -1.21256103790154E-17   4.80000000000000E-02   4.80000000000000E-02
      0.00000000000000E+00   0.00000000000000E+00   0.00000000000000E+00   0.00000000000000E+00   0.00000000000000E+00
     -6.54571057661121E-17   3.20000000000000E-01   3.20000000000000E-01   0.00000000000000E+00   0.00000000000000E+00
      7.72298078322510E-11   6.83188465908162E-15   7.72366397169101E-11   1.62641066282279E-17   2.80000000000000E-01
      2.80000000000000E-01   0.00000000000000E+00   0.00000000000000E+00   0.00000000000000E+00   0.00000000000000E+00
      0.00000000000000E+00   6.13186095168996E-17
      1.30000000000000E-01
      0.00000000000000E+00   0.00000000000000E+00   0.00000000000000E+00   0.00000000000000E+00  -1.94689501950189E-13
     -7.12646932003331E-11  -7.14593827022833E-11  -1.21692392516566E-17   5.20000000000000E-02   5.20000000000000E-02
      0.00000000000000E+00   0.00000000000000E+00   0.00000000000000E+00   0.00000000000000E+00   0.00000000000000E+00
     -6.43209932335398E-17   3.20000000000000E-01   3.20000000000000E-01   0.00000000000000E+00   0.00000000000000E+00
      7.14525785810213E-11   6.80412126214897E-15   7.14593827022834E-11   1.62212986648211E-17   2.80000000000000E-01
      2.80000000000000E-01   0.00000000000000E+00   0.00000000000000E+00   0.00000000000000E+00   0.00000000000000E+00
      0.00000000000000E+00   6.02689338203753E-17
      1.40000000000000E-01
      0.00000000000000E+00   0.00000000000000E+00   0.00000000000000E+00   0.00000000000000E+00  -1.95967022009857E-13
     -6.58761582649357E-11  -6.60721252869456E-11  -1.22128499455640E-17   5.60000000000000E-02   5.60000000000000E-02
      0.00000000000000E+00   0.00000000000000E+00   0.00000000000000E+00   0.00000000000000E+00   0.00000000000000E+00
     -6.31848880481432E-17   3.20000000000000E-01   3.20000000000000E-01   0.00000000000000E+00   0.00000000000000E+00
      6.60653490788286E-11   6.77620811696481E-15   6.60721252869456E-11   1.61784872134406E-17   2.80000000000000E-01
      2.80000000000000E-01   0.00000000000000E+00   0.00000000000000E+00   0.00000000000000E+00   0.00000000000000E+00
      0.00000000000000E+00   5.92192507802667E-17
      1.50000000000000E-01
      0.00000000000000E+00   0.00000000000000E+00   0.00000000000000E+00   0.00000000000000E+00  -1.97246791461669E-13
     -6.08549119774760E-11  -6.10521587689377E-11  -1.22564428176134E-17   6.00000000000000E-02   6.00000000000000E-02
      0.00000000000000E+00   0.00000000000000E+00   0.00000000000000E+00   0.00000000000000E+00   0.00000000000000E+00
     -6.20487900030965E-17   3.20000000000000E-01   3.20000000000000E-01   0.00000000000000E+00   0.00000000000000E+00
      6.10454106102556E-11   6.74815868213375E-15   6.10521587689377E-11   1.61356722175954E-17   2.80000000000000E-01
      2.80000000000000E-01   0.00000000000000E+00   0.00000000000000E+00   0.00000000000000E+00   0.00000000000000E+00
      0.00000000000000E+00   5.81695606031145E-17
      1.60000000000000E-01
      0.00000000000000E+00   0.00000000000000E+00   0.00000000000000E+00   0.00000000000000E+00  -1.98528790733554E-13
     -5.61793244571011E-11  -5.63778532478346E-11  -1.23000182167710E-17   6.40000000000000E-02   6.40000000000000E-02
      0.00000000000000E+00   0.00000000000000E+00   0.00000000000000E+00   0.00000000000000E+00   0.00000000000000E+00
     -6.09126988951297E-17   3.20000000000000E-01   3.20000000000000E-01   0.00000000000000E+00   0.00000000000000E+00
      5.63711332625137E-11   6.71998532097703E-15   5.63778532478347E-11   1.60928536199750E-17   2.80000000000000E-01
      2.80000000000000E-01   0.00000000000000E+00   0.00000000000000E+00   0.00000000000000E+00   0.00000000000000E+00
      0.00000000000000E+00   5.71198634919257E-17
      1.70000000000000E-01
      0.00000000000000E+00   0.00000000000000E+00   0.00000000000000E+00   0.00000000000000E+00  -1.99813000002719E-13
     -5.18288073085283E-11  -5.20286203085310E-11  -1.23435764842831E-17   6.80000000000000E-02   6.80000000000000E-02
      0.00000000000000E+00   0.00000000000000E+00   0.00000000000000E+00   0.00000000000000E+00   0.00000000000000E+00
     -5.97766145244169E-17   3.20000000000000E-01   3.20000000000000E-01   0.00000000000000E+00   0.00000000000000E+00
      5.20219286090863E-11   6.69169944466152E-15   5.20286203085310E-11   1.60500313624168E-17   2.80000000000000E-01
      2.80000000000000E-01   0.00000000000000E+00   0.00000000000000E+00   0.00000000000000E+00   0.00000000000000E+00
      0.00000000000000E+00   5.60701596462832E-17
      1.80000000000000E-01
      0.00000000000000E+00   0.00000000000000E+00   0.00000000000000E+00   0.00000000000000E+00  -2.01099399241173E-13
     -4.77837769747198E-11  -4.79848763739610E-11  -1.23871179538598E-17   7.20000000000000E-02   7.20000000000000E-02
      0.00000000000000E+00   0.00000000000000E+00   0.00000000000000E+00   0.00000000000000E+00   0.00000000000000E+00
     -5.86405366944674E-17   3.20000000000000E-01   3.20000000000000E-01   0.00000000000000E+00   0.00000000000000E+00
      4.79782130624115E-11   6.66331154952696E-15   4.79848763739610E-11   1.60072053858741E-17   2.80000000000000E-01
      2.80000000000000E-01   0.00000000000000E+00   0.00000000000000E+00   0.00000000000000E+00   0.00000000000000E+00
      0.00000000000000E+00   5.50204492624531E-17
      1.90000000000000E-01
      0.00000000000000E+00   0.00000000000000E+00   0.00000000000000E+00   0.00000000000000E+00  -2.02387968256808E-13
     -4.40256187671202E-11  -4.42280067353770E-11  -1.24306429518557E-17   7.60000000000000E-02   7.60000000000000E-02
      0.00000000000000E+00   0.00000000000000E+00   0.00000000000000E+00   0.00000000000000E+00   0.00000000000000E+00
     -5.75044652120191E-17   3.20000000000000E-01   3.20000000000000E-01   0.00000000000000E+00   0.00000000000000E+00
      4.42213719040557E-11   6.63483132140254E-15   4.42280067353772E-11   1.59643756303846E-17   2.80000000000000E-01
      2.80000000000000E-01   0.00000000000000E+00   0.00000000000000E+00   0.00000000000000E+00   0.00000000000000E+00
      0.00000000000000E+00   5.39707325334902E-17
      2.00000000000000E-01
      0.00000000000000E+00   0.00000000000000E+00   0.00000000000000E+00   0.00000000000000E+00  -2.03678686730618E-13
     -4.05366515815514E-11  -4.07403302682820E-11  -1.24741517974447E-17   8.00000000000000E-02   8.00000000000000E-02
      0.00000000000000E+00   0.00000000000000E+00   0.00000000000000E+00   0.00000000000000E+00   0.00000000000000E+00
     -5.63683998869343E-17   3.20000000000000E-01   3.20000000000000E-01   0.00000000000000E+00   0.00000000000000E+00
      4.07337240006028E-11   6.60626767932693E-15   4.07403302682821E-11   1.59215420350383E-17   2.80000000000000E-01
      2.80000000000000E-01   0.00000000000000E+00   0.00000000000000E+00   0.00000000000000E+00   0.00000000000000E+00
      0.00000000000000E+00   5.29210096493407E-17
      2.10000000000000E-01
      0.00000000000000E+00   0.00000000000000E+00   0.00000000000000E+00   0.00000000000000E+00  -2.04971534250366E-13
     -3.73000933078403E-11  -3.75050648420907E-11  -1.25176448027914E-17   8.40000000000000E-02   8.40000000000000E-02
      0.00000000000000E+00   0.00000000000000E+00   0.00000000000000E+00   0.00000000000000E+00   0.00000000000000E+00
     -5.52323405320981E-17   3.20000000000000E-01   3.20000000000000E-01   0.00000000000000E+00   0.00000000000000E+00
      3.74984872132473E-11   6.57762884346920E-15   3.75050648420908E-11   1.58787045379469E-17   2.80000000000000E-01
      2.80000000000000E-01   0.00000000000000E+00   0.00000000000000E+00   0.00000000000000E+00   0.00000000000000E+00
      0.00000000000000E+00   5.18712807969427E-17
      2.20000000000000E-01
      0.00000000000000E+00   0.00000000000000E+00   0.00000000000000E+00   0.00000000000000E+00  -2.06266490341059E-13
     -3.43000269408336E-11  -3.45062934311746E-11  -1.25611222732178E-17   8.80000000000000E-02   8.80000000000000E-02
      0.00000000000000E+00   0.00000000000000E+00   0.00000000000000E+00   0.00000000000000E+00   0.00000000000000E+00
     -5.40962869633188E-17   3.20000000000000E-01   3.20000000000000E-01   0.00000000000000E+00   0.00000000000000E+00
      3.44997445087825E-11   6.54892239214072E-15   3.45062934311747E-11   1.58358630762119E-17   2.80000000000000E-01
      2.80000000000000E-01   0.00000000000000E+00   0.00000000000000E+00   0.00000000000000E+00   0.00000000000000E+00
      0.00000000000000E+00   5.08215461603247E-17
      2.30000000000000E-01
      0.00000000000000E+00   0.00000000000000E+00   0.00000000000000E+00   0.00000000000000E+00  -2.07563534492362E-13
     -3.15213674001732E-11  -3.17289309346655E-11  -1.26045845073661E-17   9.20000000000000E-02   9.20000000000000E-02
      0.00000000000000E+00   0.00000000000000E+00   0.00000000000000E+00   0.00000000000000E+00   0.00000000000000E+00
     -5.29602389992303E-17   3.20000000000000E-01   3.20000000000000E-01   0.00000000000000E+00   0.00000000000000E+00
      3.17224107793554E-11   6.52015531015792E-15   3.17289309346656E-11   1.57930175858938E-17   2.80000000000000E-01
      2.80000000000000E-01   0.00000000000000E+00   0.00000000000000E+00   0.00000000000000E+00   0.00000000000000E+00
      0.00000000000000E+00   4.97718059207025E-17
      2.40000000000000E-01
      0.00000000000000E+00   0.00000000000000E+00   0.00000000000000E+00   0.00000000000000E+00  -2.08862646183400E-13
     -2.89498290658495E-11  -2.91586917120329E-11  -1.26480317973572E-17   9.60000000000000E-02   9.60000000000000E-02
      0.00000000000000E+00   0.00000000000000E+00   0.00000000000000E+00   0.00000000000000E+00   0.00000000000000E+00
     -5.18241964611966E-17   3.20000000000000E-01   3.20000000000000E-01   0.00000000000000E+00   0.00000000000000E+00
      2.91522003779911E-11   6.49133404185454E-15   2.91586917120329E-11   1.57501680019807E-17   2.80000000000000E-01
      2.80000000000000E-01   0.00000000000000E+00   0.00000000000000E+00   0.00000000000000E+00   0.00000000000000E+00
      0.00000000000000E+00   4.87220602565730E-17
      2.50000000000000E-01
      0.00000000000000E+00   0.00000000000000E+00   0.00000000000000E+00   0.00000000000000E+00  -2.10163804905105E-13
     -2.65718940361377E-11  -2.67820578410428E-11  -1.26914644289456E-17   1.00000000000000E-01   1.00000000000000E-01
      0.00000000000000E+00   0.00000000000000E+00   0.00000000000000E+00   0.00000000000000E+00   0.00000000000000E+00
     -5.06881591732186E-17   3.20000000000000E-01   3.20000000000000E-01   0.00000000000000E+00   0.00000000000000E+00
      2.67755953765059E-11   6.46246453690788E-15   2.67820578410428E-11   1.57073142583570E-17   2.80000000000000E-01
      2.80000000000000E-01   0.00000000000000E+00   0.00000000000000E+00   0.00000000000000E+00   0.00000000000000E+00
      0.00000000000000E+00   4.76723093438073E-17
      2.60000000000000E-01
      0.00000000000000E+00   0.00000000000000E+00   0.00000000000000E+00   0.00000000000000E+00  -2.11466990180238E-13
     -2.43747811140859E-11  -2.45862481042661E-11  -1.27348826816705E-17   1.04000000000000E-01   1.04000000000000E-01
      0.00000000000000E+00   0.00000000000000E+00   0.00000000000000E+00   0.00000000000000E+00   0.00000000000000E+00
     -4.95521269618425E-17   3.20000000000000E-01   3.20000000000000E-01   0.00000000000000E+00   0.00000000000000E+00
      2.45798145519947E-11   6.43355227143598E-15   2.45862481042661E-11   1.56644562877719E-17   2.80000000000000E-01
      2.80000000000000E-01   0.00000000000000E+00   0.00000000000000E+00   0.00000000000000E+00   0.00000000000000E+00
      0.00000000000000E+00   4.66225533557412E-17
      2.70000000000000E-01
      0.00000000000000E+00   0.00000000000000E+00   0.00000000000000E+00   0.00000000000000E+00  -2.12772181581490E-13
     -2.23464155283698E-11  -2.25591877099513E-11  -1.27782868290024E-17   1.08000000000000E-01   1.08000000000000E-01
      0.00000000000000E+00   0.00000000000000E+00   0.00000000000000E+00   0.00000000000000E+00   0.00000000000000E+00
     -4.84160996560698E-17   3.20000000000000E-01   3.20000000000000E-01   0.00000000000000E+00   0.00000000000000E+00
      2.25527831076340E-11   6.40460231729734E-15   2.25591877099513E-11   1.56215940218079E-17   2.80000000000000E-01
      2.80000000000000E-01   0.00000000000000E+00   0.00000000000000E+00   0.00000000000000E+00   0.00000000000000E+00
      0.00000000000000E+00   4.55727924632643E-17
      2.80000000000000E-01
      0.00000000000000E+00   0.00000000000000E+00   0.00000000000000E+00   0.00000000000000E+00  -2.14079358747647E-13
     -2.04753993936609E-11  -2.06894787524086E-11  -1.28216771384870E-17   1.12000000000000E-01   1.12000000000000E-01
      0.00000000000000E+00   0.00000000000000E+00   0.00000000000000E+00   0.00000000000000E+00   0.00000000000000E+00
     -4.72800770872694E-17   3.20000000000000E-01   3.20000000000000E-01   0.00000000000000E+00   0.00000000000000E+00
      2.06831031330604E-11   6.37561934813600E-15   2.06894787524086E-11   1.55787273908489E-17   2.80000000000000E-01
      2.80000000000000E-01   0.00000000000000E+00   0.00000000000000E+00   0.00000000000000E+00   0.00000000000000E+00
      0.00000000000000E+00   4.45230268349076E-17
      2.90000000000000E-01
      0.00000000000000E+00   0.00000000000000E+00   0.00000000000000E+00   0.00000000000000E+00  -2.15388501398075E-13
     -1.87509829153715E-11  -1.89663714167695E-11  -1.28650538718853E-17   1.16000000000000E-01   1.16000000000000E-01
      0.00000000000000E+00   0.00000000000000E+00   0.00000000000000E+00   0.00000000000000E+00   0.00000000000000E+00
     -4.61440590890913E-17   3.20000000000000E-01   3.20000000000000E-01   0.00000000000000E+00   0.00000000000000E+00
      1.89600248090851E-11   6.34660768443995E-15   1.89663714167695E-11   1.55358563240480E-17   2.80000000000000E-01
      2.80000000000000E-01   0.00000000000000E+00   0.00000000000000E+00   0.00000000000000E+00   0.00000000000000E+00
      0.00000000000000E+00   4.34732566369286E-17
      3.00000000000000E-01
      0.00000000000000E+00   0.00000000000000E+00   0.00000000000000E+00   0.00000000000000E+00  -2.16699589345682E-13
     -1.71630363429683E-11  -1.73797359323140E-11  -1.29084172853097E-17   1.20000000000000E-01   1.20000000000000E-01
      0.00000000000000E+00   0.00000000000000E+00   0.00000000000000E+00   0.00000000000000E+00   0.00000000000000E+00
     -4.50080454973818E-17   3.20000000000000E-01   3.20000000000000E-01   0.00000000000000E+00   0.00000000000000E+00
      1.73734183609879E-11   6.31757132609825E-15   1.73797359323140E-11   1.54929807492953E-17   2.80000000000000E-01
      2.80000000000000E-01   0.00000000000000E+00   0.00000000000000E+00   0.00000000000000E+00   0.00000000000000E+00
      0.00000000000000E+00   4.24234820333962E-17
      3.10000000000000E-01
      0.00000000000000E+00   0.00000000000000E+00   0.00000000000000E+00   0.00000000000000E+00  -2.18012602508457E-13
     -1.57020226755493E-11  -1.59200352780578E-11  -1.29517676293572E-17   1.24000000000000E-01   1.24000000000000E-01
      0.00000000000000E+00   0.00000000000000E+00   0.00000000000000E+00   0.00000000000000E+00   0.00000000000000E+00
     -4.38720361501004E-17   3.20000000000000E-01   3.20000000000000E-01   0.00000000000000E+00   0.00000000000000E+00
      1.59137467640918E-11   6.28851396594354E-15   1.59200352780578E-11   1.54501005931849E-17   2.80000000000000E-01
      2.80000000000000E-01   0.00000000000000E+00   0.00000000000000E+00   0.00000000000000E+00   0.00000000000000E+00
      0.00000000000000E+00   4.13737031862727E-17
      3.20000000000000E-01
      0.00000000000000E+00   0.00000000000000E+00   0.00000000000000E+00   0.00000000000000E+00  -2.19327520919765E-13
     -1.43589711228789E-11  -1.45782986437987E-11  -1.29951051492395E-17   1.28000000000000E-01   1.28000000000000E-01
      0.00000000000000E+00   0.00000000000000E+00   0.00000000000000E+00   0.00000000000000E+00   0.00000000000000E+00
     -4.27360308872377E-17   3.20000000000000E-01   3.20000000000000E-01   0.00000000000000E+00   0.00000000000000E+00
      1.45720392047737E-11   6.25943902501364E-15   1.45782986437987E-11   1.54072157809817E-17   2.80000000000000E-01
      2.80000000000000E-01   0.00000000000000E+00   0.00000000000000E+00   0.00000000000000E+00   0.00000000000000E+00
      0.00000000000000E+00   4.03239202554954E-17
      3.30000000000000E-01
      0.00000000000000E+00   0.00000000000000E+00   0.00000000000000E+00   0.00000000000000E+00  -2.20644324737384E-13
     -1.31254513244315E-11  -1.33460956491688E-11  -1.30384300849092E-17   1.32000000000000E-01   1.32000000000000E-01
      0.00000000000000E+00   0.00000000000000E+00   0.00000000000000E+00   0.00000000000000E+00   0.00000000000000E+00
     -4.16000295507355E-17   3.20000000000000E-01   3.20000000000000E-01   0.00000000000000E+00   0.00000000000000E+00
      1.33398652994951E-11   6.23034967370025E-15   1.33460956491688E-11   1.53643262365881E-17   2.80000000000000E-01
      2.80000000000000E-01   0.00000000000000E+00   0.00000000000000E+00   0.00000000000000E+00   0.00000000000000E+00
      0.00000000000000E+00   3.92741333990565E-17
      3.40000000000000E-01
      0.00000000000000E+00   0.00000000000000E+00   0.00000000000000E+00   0.00000000000000E+00  -2.21962994251595E-13
     -1.19935483284753E-11  -1.22155113227269E-11  -1.30817426711834E-17   1.36000000000000E-01   1.36000000000000E-01
      0.00000000000000E+00   0.00000000000000E+00   0.00000000000000E+00   0.00000000000000E+00   0.00000000000000E+00
     -4.04640319844076E-17   3.20000000000000E-01   3.20000000000000E-01   0.00000000000000E+00   0.00000000000000E+00
      1.22093100738764E-11   6.20124885043955E-15   1.22155113227269E-11   1.53214318825097E-17   2.80000000000000E-01
      2.80000000000000E-01   0.00000000000000E+00   0.00000000000000E+00   0.00000000000000E+00   0.00000000000000E+00
      0.00000000000000E+00   3.82243427730814E-17
      3.50000000000000E-01
      0.00000000000000E+00   0.00000000000000E+00   0.00000000000000E+00   0.00000000000000E+00  -2.23283509892239E-13
     -1.09558383326354E-11  -1.11791218425276E-11  -1.31250431378643E-17   1.40000000000000E-01   1.40000000000000E-01
      0.00000000000000E+00   0.00000000000000E+00   0.00000000000000E+00   0.00000000000000E+00   0.00000000000000E+00
     -3.93280380338623E-17   3.20000000000000E-01   3.20000000000000E-01   0.00000000000000E+00   0.00000000000000E+00
      1.11729497032475E-11   6.17213928014469E-15   1.11791218425276E-11   1.52785326398206E-17   2.80000000000000E-01
      2.80000000000000E-01   0.00000000000000E+00   0.00000000000000E+00   0.00000000000000E+00   0.00000000000000E+00
      0.00000000000000E+00   3.71745485319060E-17
      3.60000000000000E-01
      0.00000000000000E+00   0.00000000000000E+00   0.00000000000000E+00   0.00000000000000E+00  -2.24605852234865E-13
     -1.00053651867963E-11  -1.02299710390312E-11  -1.31683317098563E-17   1.44000000000000E-01   1.44000000000000E-01
      0.00000000000000E+00   0.00000000000000E+00   0.00000000000000E+00   0.00000000000000E+00   0.00000000000000E+00
     -3.81920475464255E-17   3.20000000000000E-01   3.20000000000000E-01   0.00000000000000E+00   0.00000000000000E+00
      1.02238280155389E-11   6.14302349226941E-15   1.02299710390312E-11   1.52356284281288E-17   2.80000000000000E-01
      2.80000000000000E-01   0.00000000000000E+00   0.00000000000000E+00   0.00000000000000E+00   0.00000000000000E+00
      0.00000000000000E+00   3.61247508281529E-17
      3.70000000000000E-01
      0.00000000000000E+00   0.00000000000000E+00   0.00000000000000E+00   0.00000000000000E+00  -2.25930002006173E-13