DF-ISE text

Info {
  version   = 1.0
  type      = xyplot
  datasets  = [
    "time"
    "source OuterVoltage" "source InnerVoltage" "source QuasiFermiPotential" "source DisplacementCurrent" "source eCurrent"
    "source hCurrent" "source TotalCurrent" "source Charge" "topGate OuterVoltage" "topGate InnerVoltage"
    "topGate QuasiFermiPotential" "topGate DisplacementCurrent" "topGate eCurrent" "topGate hCurrent" "topGate TotalCurrent"
    "topGate Charge" "drain OuterVoltage" "drain InnerVoltage" "drain QuasiFermiPotential" "drain DisplacementCurrent"
    "drain eCurrent" "drain hCurrent" "drain TotalCurrent" "drain Charge" "bottomGate OuterVoltage"
    "bottomGate InnerVoltage" "bottomGate QuasiFermiPotential" "bottomGate DisplacementCurrent" "bottomGate eCurrent" "bottomGate hCurrent"
    "bottomGate TotalCurrent" "bottomGate Charge" ]
  functions = [
    Time
    OuterVoltage InnerVoltage QuasiFermiPotential DisplacementCurrent eCurrent
    hCurrent TotalCurrent Charge OuterVoltage InnerVoltage
    QuasiFermiPotential DisplacementCurrent eCurrent hCurrent TotalCurrent
    Charge OuterVoltage InnerVoltage QuasiFermiPotential DisplacementCurrent
    eCurrent hCurrent TotalCurrent Charge OuterVoltage
    InnerVoltage QuasiFermiPotential DisplacementCurrent eCurrent hCurrent
    TotalCurrent Charge ]
}

Data {
      1.00000000000000E-02
      0.00000000000000E+00   0.00000000000000E+00   0.00000000000000E+00   0.00000000000000E+00  -2.01092638823503E-13
     -4.49909175427453E-11  -4.51920101815688E-11  -1.24088024984181E-17   4.00000000000000E-03   4.00000000000000E-03
      0.00000000000000E+00   0.00000000000000E+00   0.00000000000000E+00   0.00000000000000E+00   0.00000000000000E+00
     -9.44917980544829E-17   1.50000000000000E-01   1.50000000000000E-01   0.00000000000000E+00   0.00000000000000E+00
      4.51878453075323E-11   4.16487403647393E-15   4.51920101815688E-11   1.23217197097988E-17   3.50000000000000E-01
      3.50000000000000E-01   0.00000000000000E+00   0.00000000000000E+00   0.00000000000000E+00   0.00000000000000E+00
      0.00000000000000E+00   9.45788808431021E-17
      2.00000000000000E-02
      0.00000000000000E+00   0.00000000000000E+00   0.00000000000000E+00   0.00000000000000E+00  -2.02381758782623E-13
     -4.21799789977970E-11  -4.23823607565797E-11  -1.24523193998203E-17   8.00000000000000E-03   8.00000000000000E-03
      0.00000000000000E+00   0.00000000000000E+00   0.00000000000000E+00   0.00000000000000E+00   0.00000000000000E+00
     -9.33553618331906E-17   1.50000000000000E-01   1.50000000000000E-01   0.00000000000000E+00   0.00000000000000E+00
      4.23782217698359E-11   4.13898674377898E-15   4.23823607565797E-11   1.22781523682975E-17   3.50000000000000E-01
      3.50000000000000E-01   0.00000000000000E+00   0.00000000000000E+00   0.00000000000000E+00   0.00000000000000E+00
      0.00000000000000E+00   9.35295288647134E-17
      3.00000000000000E-02
      0.00000000000000E+00   0.00000000000000E+00   0.00000000000000E+00   0.00000000000000E+00  -2.03672726862895E-13
     -3.95670749771473E-11  -3.97707477040102E-11  -1.24958203044846E-17   1.20000000000000E-02   1.20000000000000E-02
      0.00000000000000E+00   0.00000000000000E+00   0.00000000000000E+00   0.00000000000000E+00   0.00000000000000E+00
     -9.22189249650991E-17   1.50000000000000E-01   1.50000000000000E-01   0.00000000000000E+00   0.00000000000000E+00
      3.97666345314482E-11   4.11317256193898E-15   3.97707477040102E-11   1.22345677322569E-17   3.50000000000000E-01
      3.50000000000000E-01   0.00000000000000E+00   0.00000000000000E+00   0.00000000000000E+00   0.00000000000000E+00
      0.00000000000000E+00   9.24801775373268E-17
      4.00000000000000E-02
      0.00000000000000E+00   0.00000000000000E+00   0.00000000000000E+00   0.00000000000000E+00  -2.04965546616766E-13
     -3.71388774877636E-11  -3.73438430343804E-11  -1.25393055211625E-17   1.60000000000000E-02   1.60000000000000E-02
      0.00000000000000E+00   0.00000000000000E+00   0.00000000000000E+00   0.00000000000000E+00   0.00000000000000E+00
     -9.10824871217464E-17   1.50000000000000E-01   1.50000000000000E-01   0.00000000000000E+00   0.00000000000000E+00
      3.73397556051538E-11   4.08742922662204E-15   3.73438430343804E-11   1.21909654536870E-17   3.50000000000000E-01
      3.50000000000000E-01   0.00000000000000E+00   0.00000000000000E+00   0.00000000000000E+00   0.00000000000000E+00
      0.00000000000000E+00   9.14308271892219E-17
      5.00000000000000E-02
      0.00000000000000E+00   0.00000000000000E+00   0.00000000000000E+00   0.00000000000000E+00  -2.06260219552342E-13
     -3.48828356819510E-11  -3.50890959015034E-11  -1.25827753518427E-17   2.00000000000000E-02   2.00000000000000E-02
      0.00000000000000E+00   0.00000000000000E+00   0.00000000000000E+00   0.00000000000000E+00   0.00000000000000E+00
     -8.99460479741842E-17   1.50000000000000E-01   1.50000000000000E-01   0.00000000000000E+00   0.00000000000000E+00
      3.50850341470819E-11   4.06175442146797E-15   3.50890959015033E-11   1.21473451768404E-17   3.50000000000000E-01
      3.50000000000000E-01   0.00000000000000E+00   0.00000000000000E+00   0.00000000000000E+00   0.00000000000000E+00
      0.00000000000000E+00   9.03814781491865E-17
      6.00000000000000E-02
      0.00000000000000E+00   0.00000000000000E+00   0.00000000000000E+00   0.00000000000000E+00  -2.07556745323909E-13
     -3.27871402217469E-11  -3.29946969670708E-11  -1.26262300919117E-17   2.40000000000000E-02   2.40000000000000E-02
      0.00000000000000E+00   0.00000000000000E+00   0.00000000000000E+00   0.00000000000000E+00   0.00000000000000E+00
     -8.88096071927936E-17   1.50000000000000E-01   1.50000000000000E-01   0.00000000000000E+00   0.00000000000000E+00
      3.29906608213226E-11   4.03614574820514E-15   3.29946969670708E-11   1.21037065380053E-17   3.50000000000000E-01
      3.50000000000000E-01   0.00000000000000E+00   0.00000000000000E+00   0.00000000000000E+00   0.00000000000000E+00
      0.00000000000000E+00   8.93321307467000E-17
      7.00000000000000E-02
      0.00000000000000E+00   0.00000000000000E+00   0.00000000000000E+00   0.00000000000000E+00  -2.08855121908194E-13
     -3.08406887965389E-11  -3.10495439184471E-11  -1.26696700303105E-17   2.80000000000000E-02   2.80000000000000E-02
      0.00000000000000E+00   0.00000000000000E+00   0.00000000000000E+00   0.00000000000000E+00   0.00000000000000E+00
     -8.76731644471003E-17   1.50000000000000E-01   1.50000000000000E-01   0.00000000000000E+00   0.00000000000000E+00
      3.10455333176774E-11   4.01060076966346E-15   3.10495439184471E-11   1.20600491652933E-17   3.50000000000000E-01
      3.50000000000000E-01   0.00000000000000E+00   0.00000000000000E+00   0.00000000000000E+00   0.00000000000000E+00
      0.00000000000000E+00   8.82827853121175E-17
      8.00000000000000E-02
      0.00000000000000E+00   0.00000000000000E+00   0.00000000000000E+00   0.00000000000000E+00  -2.10155345763591E-13
     -2.90330527621315E-11  -2.92432081078951E-11  -1.27130954496875E-17   3.20000000000000E-02   3.20000000000000E-02
      0.00000000000000E+00   0.00000000000000E+00   0.00000000000000E+00   0.00000000000000E+00   0.00000000000000E+00
     -8.65367194055892E-17   1.50000000000000E-01   1.50000000000000E-01   0.00000000000000E+00   0.00000000000000E+00
      2.92392229908861E-11   3.98511700892886E-15   2.92432081078951E-11   1.20163726784234E-17   3.50000000000000E-01
      3.50000000000000E-01   0.00000000000000E+00   0.00000000000000E+00   0.00000000000000E+00   0.00000000000000E+00
      0.00000000000000E+00   8.72334421768532E-17
      9.00000000000000E-02
      0.00000000000000E+00   0.00000000000000E+00   0.00000000000000E+00   0.00000000000000E+00  -2.11457411976045E-13
     -2.73544448730048E-11  -2.75659022849809E-11  -1.27565066265474E-17   3.60000000000000E-02   3.60000000000000E-02
      0.00000000000000E+00   0.00000000000000E+00   0.00000000000000E+00   0.00000000000000E+00   0.00000000000000E+00
     -8.54002717355185E-17   1.50000000000000E-01   1.50000000000000E-01   0.00000000000000E+00   0.00000000000000E+00
      2.75619425930101E-11   3.95969197070463E-15   2.75659022849808E-11   1.19726766885002E-17   3.50000000000000E-01
      3.50000000000000E-01   0.00000000000000E+00   0.00000000000000E+00   0.00000000000000E+00   0.00000000000000E+00
      0.00000000000000E+00   8.61841016735658E-17
      1.00000000000000E-01
      0.00000000000000E+00   0.00000000000000E+00   0.00000000000000E+00   0.00000000000000E+00  -2.12761314394439E-13
     -2.57956880822866E-11  -2.60084493966811E-11  -1.27999038313973E-17   4.00000000000000E-02   4.00000000000000E-02
      0.00000000000000E+00   0.00000000000000E+00   0.00000000000000E+00   0.00000000000000E+00   0.00000000000000E+00
     -8.42638211027336E-17   1.50000000000000E-01   1.50000000000000E-01   0.00000000000000E+00   0.00000000000000E+00
      2.60045150735324E-11   3.93432314864251E-15   2.60084493966811E-11   1.19289607977879E-17   3.50000000000000E-01
      3.50000000000000E-01   0.00000000000000E+00   0.00000000000000E+00   0.00000000000000E+00   0.00000000000000E+00
      0.00000000000000E+00   8.51347641363431E-17
      1.10000000000000E-01
      0.00000000000000E+00   0.00000000000000E+00   0.00000000000000E+00   0.00000000000000E+00  -2.14067045752117E-13
     -2.43481853864609E-11  -2.45622524322130E-11  -1.28432873288876E-17   4.40000000000000E-02   4.40000000000000E-02
      0.00000000000000E+00   0.00000000000000E+00   0.00000000000000E+00   0.00000000000000E+00   0.00000000000000E+00
     -8.31273671714794E-17   1.50000000000000E-01   1.50000000000000E-01   0.00000000000000E+00   0.00000000000000E+00
      2.45583434241736E-11   3.90900803937549E-15   2.45622524322130E-11   1.18852245994776E-17   3.50000000000000E-01
      3.50000000000000E-01   0.00000000000000E+00   0.00000000000000E+00   0.00000000000000E+00   0.00000000000000E+00
      0.00000000000000E+00   8.40854299008895E-17
      1.20000000000000E-01
      0.00000000000000E+00   0.00000000000000E+00   0.00000000000000E+00   0.00000000000000E+00  -2.15374597780689E-13
     -2.30038906938801E-11  -2.32192652916608E-11  -1.28866573779507E-17   4.80000000000000E-02   4.80000000000000E-02
      0.00000000000000E+00   0.00000000000000E+00   0.00000000000000E+00   0.00000000000000E+00   0.00000000000000E+00
     -8.19909096042120E-17   1.50000000000000E-01   1.50000000000000E-01   0.00000000000000E+00   0.00000000000000E+00
      2.32153815474954E-11   3.88374416537772E-15   2.32192652916608E-11   1.18414676774502E-17   3.50000000000000E-01
      3.50000000000000E-01   0.00000000000000E+00   0.00000000000000E+00   0.00000000000000E+00   0.00000000000000E+00
      0.00000000000000E+00   8.30360993047125E-17
      1.30000000000000E-01
      0.00000000000000E+00   0.00000000000000E+00   0.00000000000000E+00   0.00000000000000E+00  -2.16683961310207E-13
     -2.17552806978203E-11  -2.19719646591305E-11  -1.29300142319359E-17   5.20000000000000E-02   5.20000000000000E-02
      0.00000000000000E+00   0.00000000000000E+00   0.00000000000000E+00   0.00000000000000E+00   0.00000000000000E+00
     -8.08544480614092E-17   1.50000000000000E-01   1.50000000000000E-01   0.00000000000000E+00   0.00000000000000E+00
      2.19681061300524E-11   3.85852907811284E-15   2.19719646591305E-11   1.17976896060329E-17   3.50000000000000E-01
      3.50000000000000E-01   0.00000000000000E+00   0.00000000000000E+00   0.00000000000000E+00   0.00000000000000E+00
      0.00000000000000E+00   8.19867726873121E-17
      1.40000000000000E-01
      0.00000000000000E+00   0.00000000000000E+00   0.00000000000000E+00   0.00000000000000E+00  -2.17995126365804E-13
     -2.05953277362739E-11  -2.08133228626397E-11  -1.29733581387406E-17   5.60000000000000E-02   5.60000000000000E-02
      0.00000000000000E+00   0.00000000000000E+00   0.00000000000000E+00   0.00000000000000E+00   0.00000000000000E+00
     -7.97179822013800E-17   1.50000000000000E-01   1.50000000000000E-01   0.00000000000000E+00   0.00000000000000E+00
      2.08094895022592E-11   3.83336038051926E-15   2.08133228626397E-11   1.17538899497499E-17   3.50000000000000E-01
      3.50000000000000E-01   0.00000000000000E+00   0.00000000000000E+00   0.00000000000000E+00   0.00000000000000E+00
      0.00000000000000E+00   8.09374503903708E-17
      1.50000000000000E-01
      0.00000000000000E+00   0.00000000000000E+00   0.00000000000000E+00   0.00000000000000E+00  -2.19308082251453E-13
     -1.95174736217025E-11  -1.97367817039540E-11  -1.30166893409389E-17   6.00000000000000E-02   6.00000000000000E-02
      0.00000000000000E+00   0.00000000000000E+00   0.00000000000000E+00   0.00000000000000E+00   0.00000000000000E+00
     -7.85815116800719E-17   1.50000000000000E-01   1.50000000000000E-01   0.00000000000000E+00   0.00000000000000E+00
      1.97329734682143E-11   3.80823573969494E-15   1.97367817039540E-11   1.17100682630662E-17   3.50000000000000E-01
      3.50000000000000E-01   0.00000000000000E+00   0.00000000000000E+00   0.00000000000000E+00   0.00000000000000E+00
      0.00000000000000E+00   7.98881327579446E-17
      1.60000000000000E-01
      0.00000000000000E+00   0.00000000000000E+00   0.00000000000000E+00   0.00000000000000E+00  -2.20622817630778E-13
     -1.85156044248562E-11  -1.87362272424870E-11  -1.30600080759061E-17   6.40000000000000E-02   6.40000000000000E-02
      0.00000000000000E+00   0.00000000000000E+00   0.00000000000000E+00   0.00000000000000E+00   0.00000000000000E+00
     -7.74450361508771E-17   1.50000000000000E-01   1.50000000000000E-01   0.00000000000000E+00   0.00000000000000E+00
      1.87324440895887E-11   3.78315289837628E-15   1.87362272424870E-11   1.16662240901260E-17   3.50000000000000E-01
      3.50000000000000E-01   0.00000000000000E+00   0.00000000000000E+00   0.00000000000000E+00   0.00000000000000E+00
      0.00000000000000E+00   7.88388201366572E-17
      1.70000000000000E-01
      0.00000000000000E+00   0.00000000000000E+00   0.00000000000000E+00   0.00000000000000E+00  -2.21939320594820E-13
     -1.75840261973837E-11  -1.78059655179785E-11  -1.31033145759411E-17   6.80000000000000E-02   6.80000000000000E-02
      0.00000000000000E+00   0.00000000000000E+00   0.00000000000000E+00   0.00000000000000E+00   0.00000000000000E+00
     -7.63085552644371E-17   1.50000000000000E-01   1.50000000000000E-01   0.00000000000000E+00   0.00000000000000E+00
      1.78022074082877E-11   3.75810969072178E-15   1.78059655179785E-11   1.16223569644834E-17   3.50000000000000E-01
      3.50000000000000E-01   0.00000000000000E+00   0.00000000000000E+00   0.00000000000000E+00   0.00000000000000E+00
      0.00000000000000E+00   7.77895128758947E-17
      1.80000000000000E-01
      0.00000000000000E+00   0.00000000000000E+00   0.00000000000000E+00   0.00000000000000E+00  -2.23257578732697E-13
     -1.67174416183669E-11  -1.69406991970996E-11  -1.31466090683852E-17   7.20000000000000E-02   7.20000000000000E-02
      0.00000000000000E+00   0.00000000000000E+00   0.00000000000000E+00   0.00000000000000E+00   0.00000000000000E+00
     -7.51720686684442E-17   1.50000000000000E-01   1.50000000000000E-01   0.00000000000000E+00   0.00000000000000E+00
      1.69369660930425E-11   3.73310405710641E-15   1.69406991970996E-11   1.15784664088266E-17   3.50000000000000E-01
      3.50000000000000E-01   0.00000000000000E+00   0.00000000000000E+00   0.00000000000000E+00   0.00000000000000E+00
      0.00000000000000E+00   7.67402113280028E-17
      1.90000000000000E-01
      0.00000000000000E+00   0.00000000000000E+00   0.00000000000000E+00   0.00000000000000E+00  -2.24577579187422E-13
     -1.59109275501746E-11  -1.61355051293621E-11  -1.31898917757378E-17   7.60000000000000E-02   7.60000000000000E-02
      0.00000000000000E+00   0.00000000000000E+00   0.00000000000000E+00   0.00000000000000E+00   0.00000000000000E+00
     -7.40355760074425E-17   1.50000000000000E-01   1.50000000000000E-01   0.00000000000000E+00   0.00000000000000E+00
      1.61317969953063E-11   3.70813405577046E-15   1.61355051293620E-11   1.15345519346945E-17   3.50000000000000E-01
      3.50000000000000E-01   0.00000000000000E+00   0.00000000000000E+00   0.00000000000000E+00   0.00000000000000E+00
      0.00000000000000E+00   7.56909158484859E-17
      2.00000000000000E-01
      0.00000000000000E+00   0.00000000000000E+00   0.00000000000000E+00   0.00000000000000E+00  -2.25899308709473E-13
     -1.51599134891382E-11  -1.53858127978476E-11  -1.32331629157700E-17   8.00000000000000E-02   8.00000000000000E-02
      0.00000000000000E+00   0.00000000000000E+00   0.00000000000000E+00   0.00000000000000E+00   0.00000000000000E+00
     -7.28990769226256E-17   1.50000000000000E-01   1.50000000000000E-01   0.00000000000000E+00   0.00000000000000E+00
      1.53821295999749E-11   3.68319787272272E-15   1.53858127978476E-11   1.14906130421863E-17   3.50000000000000E-01
      3.50000000000000E-01   0.00000000000000E+00   0.00000000000000E+00   0.00000000000000E+00   0.00000000000000E+00
      0.00000000000000E+00   7.46416267962093E-17
      2.10000000000000E-01
      0.00000000000000E+00   0.00000000000000E+00   0.00000000000000E+00   0.00000000000000E+00  -2.27222753714194E-13
     -1.44601608965464E-11  -1.46873836502606E-11  -1.32764227016342E-17   8.40000000000000E-02   8.40000000000000E-02
      0.00000000000000E+00   0.00000000000000E+00   0.00000000000000E+00   0.00000000000000E+00   0.00000000000000E+00
     -7.17625710516316E-17   1.50000000000000E-01   1.50000000000000E-01   0.00000000000000E+00   0.00000000000000E+00
      1.46837253564204E-11   3.65829384028951E-15   1.46873836502606E-11   1.14466492196631E-17   3.50000000000000E-01
      3.50000000000000E-01   0.00000000000000E+00   0.00000000000000E+00   0.00000000000000E+00   0.00000000000000E+00
      0.00000000000000E+00   7.35923445336027E-17
      2.20000000000000E-01
      0.00000000000000E+00   0.00000000000000E+00   0.00000000000000E+00   0.00000000000000E+00  -2.28547900315128E-13
     -1.38077433953017E-11  -1.40362912956169E-11  -1.33196713419723E-17   8.80000000000000E-02   8.80000000000000E-02
      0.00000000000000E+00   0.00000000000000E+00   0.00000000000000E+00   0.00000000000000E+00   0.00000000000000E+00
     -7.06260580283363E-17   1.50000000000000E-01   1.50000000000000E-01   0.00000000000000E+00   0.00000000000000E+00
      1.40326578751820E-11   3.63342043484905E-15   1.40362912956169E-11   1.14026599434415E-17   3.50000000000000E-01
      3.50000000000000E-01   0.00000000000000E+00   0.00000000000000E+00   0.00000000000000E+00   0.00000000000000E+00
      0.00000000000000E+00   7.25430694268670E-17
      2.30000000000000E-01
      0.00000000000000E+00   0.00000000000000E+00   0.00000000000000E+00   0.00000000000000E+00  -2.29874734379057E-13
     -1.31990278174521E-11  -1.34289025518312E-11  -1.33629090410200E-17   9.20000000000000E-02   9.20000000000000E-02
      0.00000000000000E+00   0.00000000000000E+00   0.00000000000000E+00   0.00000000000000E+00   0.00000000000000E+00
     -6.94895374826430E-17   1.50000000000000E-01   1.50000000000000E-01   0.00000000000000E+00   0.00000000000000E+00
      1.34252939755275E-11   3.60857630371770E-15   1.34289025518312E-11   1.13586446774784E-17   3.50000000000000E-01
      3.50000000000000E-01   0.00000000000000E+00   0.00000000000000E+00   0.00000000000000E+00   0.00000000000000E+00
      0.00000000000000E+00   7.14938018461846E-17
      2.40000000000000E-01
      0.00000000000000E+00   0.00000000000000E+00   0.00000000000000E+00   0.00000000000000E+00  -2.31203241549579E-13
     -1.26306560874365E-11  -1.28618593289861E-11  -1.34061359987098E-17   9.60000000000000E-02   9.60000000000000E-02
      0.00000000000000E+00   0.00000000000000E+00   0.00000000000000E+00   0.00000000000000E+00   0.00000000000000E+00
     -6.83530090402697E-17   1.50000000000000E-01   1.50000000000000E-01   0.00000000000000E+00   0.00000000000000E+00
      1.28582755687282E-11   3.58376025787157E-15   1.28618593289861E-11   1.13146028730486E-17   3.50000000000000E-01
      3.50000000000000E-01   0.00000000000000E+00   0.00000000000000E+00   0.00000000000000E+00   0.00000000000000E+00
      0.00000000000000E+00   7.04445421659309E-17
      2.50000000000000E-01
      0.00000000000000E+00   0.00000000000000E+00   0.00000000000000E+00   0.00000000000000E+00  -2.32533407292572E-13
     -1.20995279256764E-11  -1.23320613329690E-11  -1.34493524107698E-17   1.00000000000000E-01   1.00000000000000E-01
      0.00000000000000E+00   0.00000000000000E+00   0.00000000000000E+00   0.00000000000000E+00   0.00000000000000E+00
     -6.72164723225324E-17   1.50000000000000E-01   1.50000000000000E-01   0.00000000000000E+00   0.00000000000000E+00
      1.23285023616804E-11   3.55897128851415E-15   1.23320613329690E-11   1.12705339684115E-17   3.50000000000000E-01
      3.50000000000000E-01   0.00000000000000E+00   0.00000000000000E+00   0.00000000000000E+00   0.00000000000000E+00
      0.00000000000000E+00   6.93952907648907E-17
      2.60000000000000E-01
      0.00000000000000E+00   0.00000000000000E+00   0.00000000000000E+00   0.00000000000000E+00  -2.33865216921385E-13
     -1.16027843567000E-11  -1.18366495736214E-11  -1.34925584688220E-17   1.04000000000000E-01   1.04000000000000E-01
      0.00000000000000E+00   0.00000000000000E+00   0.00000000000000E+00   0.00000000000000E+00   0.00000000000000E+00
     -6.60799269461260E-17   1.50000000000000E-01   1.50000000000000E-01   0.00000000000000E+00   0.00000000000000E+00
      1.18331153650495E-11   3.53420857189658E-15   1.18366495736214E-11   1.12264373884707E-17   3.50000000000000E-01
      3.50000000000000E-01   0.00000000000000E+00   0.00000000000000E+00   0.00000000000000E+00   0.00000000000000E+00
      0.00000000000000E+00   6.83460480264773E-17
      2.70000000000000E-01
      0.00000000000000E+00   0.00000000000000E+00   0.00000000000000E+00   0.00000000000000E+00  -2.35198655628442E-13
     -1.11377920056414E-11  -1.13729906612698E-11  -1.35357543604764E-17   1.08000000000000E-01   1.08000000000000E-01
      0.00000000000000E+00   0.00000000000000E+00   0.00000000000000E+00   0.00000000000000E+00   0.00000000000000E+00
     -6.49433725229009E-17   1.50000000000000E-01   1.50000000000000E-01   0.00000000000000E+00   0.00000000000000E+00
      1.13694811897987E-11   3.50947147111144E-15   1.13729906612698E-11   1.11823125444224E-17   3.50000000000000E-01
      3.50000000000000E-01   0.00000000000000E+00   0.00000000000000E+00   0.00000000000000E+00   0.00000000000000E+00
      0.00000000000000E+00   6.72968143389549E-17
      2.80000000000000E-01
      0.00000000000000E+00   0.00000000000000E+00   0.00000000000000E+00   0.00000000000000E+00  -2.36533708504084E-13
     -1.07021281665623E-11  -1.09386618750664E-11  -1.35789402694239E-17   1.12000000000000E-01   1.12000000000000E-01
      0.00000000000000E+00   0.00000000000000E+00   0.00000000000000E+00   0.00000000000000E+00   0.00000000000000E+00
     -6.38068086596360E-17   1.50000000000000E-01   1.50000000000000E-01   0.00000000000000E+00   0.00000000000000E+00
      1.09351771155241E-11   3.48475954232996E-15   1.09386618750664E-11   1.11381588333949E-17   3.50000000000000E-01
      3.50000000000000E-01   0.00000000000000E+00   0.00000000000000E+00   0.00000000000000E+00   0.00000000000000E+00
      0.00000000000000E+00   6.62475900956650E-17
      2.90000000000000E-01
      0.00000000000000E+00   0.00000000000000E+00   0.00000000000000E+00   0.00000000000000E+00  -2.37870360571496E-13
     -1.02935666256256E-11  -1.05314369861971E-11  -1.36221163755265E-17   1.16000000000000E-01   1.16000000000000E-01
      0.00000000000000E+00   0.00000000000000E+00   0.00000000000000E+00   0.00000000000000E+00   0.00000000000000E+00
     -6.26702349578079E-17   1.50000000000000E-01   1.50000000000000E-01   0.00000000000000E+00   0.00000000000000E+00
      1.05279769136597E-11   3.46007253741827E-15   1.05314369861971E-11   1.10939756380774E-17   3.50000000000000E-01
      3.50000000000000E-01   0.00000000000000E+00   0.00000000000000E+00   0.00000000000000E+00   0.00000000000000E+00
      0.00000000000000E+00   6.51983756952571E-17
      3.00000000000000E-01
      0.00000000000000E+00   0.00000000000000E+00   0.00000000000000E+00   0.00000000000000E+00  -2.39208596796254E-13
     -9.91006422176726E-12  -1.01492728185635E-11  -1.36652828549053E-17   1.20000000000000E-01   1.20000000000000E-01
      0.00000000000000E+00   0.00000000000000E+00   0.00000000000000E+00   0.00000000000000E+00   0.00000000000000E+00
     -6.15336510133559E-17   1.50000000000000E-01   1.50000000000000E-01   0.00000000000000E+00   0.00000000000000E+00
      1.01458374081588E-11   3.43541040466723E-15   1.01492728185635E-11   1.10497623263385E-17   3.50000000000000E-01
      3.50000000000000E-01   0.00000000000000E+00   0.00000000000000E+00   0.00000000000000E+00   0.00000000000000E+00
      0.00000000000000E+00   6.41491715419227E-17
      3.10000000000000E-01
      0.00000000000000E+00   0.00000000000000E+00   0.00000000000000E+00   0.00000000000000E+00  -2.40548402108631E-13
     -9.54974812712745E-12  -9.79029652923608E-12  -1.37084398800262E-17   1.24000000000000E-01   1.24000000000000E-01
      0.00000000000000E+00   0.00000000000000E+00   0.00000000000000E+00   0.00000000000000E+00   0.00000000000000E+00
     -6.03970564164420E-17   1.50000000000000E-01   1.50000000000000E-01   0.00000000000000E+00   0.00000000000000E+00
      9.78688575595120E-12   3.41077328488275E-15   9.79029652923608E-12   1.10055182508337E-17   3.50000000000000E-01
      3.50000000000000E-01   0.00000000000000E+00   0.00000000000000E+00   0.00000000000000E+00   0.00000000000000E+00
      0.00000000000000E+00   6.30999780456345E-17
      3.20000000000000E-01
      0.00000000000000E+00   0.00000000000000E+00   0.00000000000000E+00   0.00000000000000E+00  -2.41889761426486E-13
     -9.21090382915984E-12  -9.45279359058633E-12  -1.37515876197839E-17   1.28000000000000E-01   1.28000000000000E-01
      0.00000000000000E+00   0.00000000000000E+00   0.00000000000000E+00   0.00000000000000E+00   0.00000000000000E+00
     -5.92604507512070E-17   1.50000000000000E-01   1.50000000000000E-01   0.00000000000000E+00   0.00000000000000E+00
      9.44940742907138E-12   3.38616151496304E-15   9.45279359058634E-12   1.09612427486012E-17   3.50000000000000E-01
      3.50000000000000E-01   0.00000000000000E+00   0.00000000000000E+00   0.00000000000000E+00   0.00000000000000E+00
      0.00000000000000E+00   6.20507956223896E-17
      3.30000000000000E-01
      0.00000000000000E+00   0.00000000000000E+00   0.00000000000000E+00   0.00000000000000E+00  -2.43232659660825E-13
     -8.89196379597765E-12  -9.13519645563847E-12  -1.37947262395832E-17   1.32000000000000E-01   1.32000000000000E-01
      0.00000000000000E+00   0.00000000000000E+00   0.00000000000000E+00   0.00000000000000E+00   0.00000000000000E+00
     -5.81238335955215E-17   1.50000000000000E-01   1.50000000000000E-01   0.00000000000000E+00   0.00000000000000E+00
      9.13183488001782E-12   3.36157562064492E-15   9.13519645563846E-12   1.09169351406466E-17   3.50000000000000E-01
      3.50000000000000E-01   0.00000000000000E+00   0.00000000000000E+00   0.00000000000000E+00   0.00000000000000E+00
      0.00000000000000E+00   6.10016246944581E-17
      3.40000000000000E-01
      0.00000000000000E+00   0.00000000000000E+00   0.00000000000000E+00   0.00000000000000E+00  -2.44577081737785E-13
     -8.59149680623676E-12  -8.83607388797454E-12  -1.38378559014192E-17   1.36000000000000E-01   1.36000000000000E-01
      0.00000000000000E+00   0.00000000000000E+00   0.00000000000000E+00   0.00000000000000E+00   0.00000000000000E+00
     -5.69872045207313E-17   1.50000000000000E-01   1.50000000000000E-01   0.00000000000000E+00   0.00000000000000E+00
      8.83273687166140E-12   3.33701631314630E-15   8.83607388797455E-12   1.08725947315144E-17   3.50000000000000E-01
      3.50000000000000E-01   0.00000000000000E+00   0.00000000000000E+00   0.00000000000000E+00   0.00000000000000E+00
      0.00000000000000E+00   5.99524656906360E-17
      3.50000000000000E-01
      0.00000000000000E+00   0.00000000000000E+00   0.00000000000000E+00   0.00000000000000E+00  -2.45923012606805E-13
     -8.30819792458244E-12  -8.55412093718924E-12  -1.38809767639542E-17   1.40000000000000E-01   1.40000000000000E-01
      0.00000000000000E+00   0.00000000000000E+00   0.00000000000000E+00   0.00000000000000E+00   0.00000000000000E+00
     -5.58505630913978E-17   1.50000000000000E-01   1.50000000000000E-01   0.00000000000000E+00   0.00000000000000E+00
      8.55080845270608E-12   3.31248448314102E-15   8.55412093718923E-12   1.08282208088479E-17   3.50000000000000E-01
      3.50000000000000E-01   0.00000000000000E+00   0.00000000000000E+00   0.00000000000000E+00   0.00000000000000E+00
      0.00000000000000E+00   5.89033190465041E-17
      3.60000000000000E-01
      0.00000000000000E+00   0.00000000000000E+00   0.00000000000000E+00   0.00000000000000E+00  -2.47270437256521E-13
     -8.04087910348809E-12  -8.28814954074461E-12  -1.39240889825940E-17   1.44000000000000E-01   1.44000000000000E-01
      0.00000000000000E+00   0.00000000000000E+00   0.00000000000000E+00   0.00000000000000E+00   0.00000000000000E+00
     -5.47139088650331E-17   1.50000000000000E-01   1.50000000000000E-01   0.00000000000000E+00   0.00000000000000E+00
      8.28486155955110E-12   3.28798119349590E-15   8.28814954074460E-12   1.07838126429351E-17   3.50000000000000E-01
      3.50000000000000E-01   0.00000000000000E+00   0.00000000000000E+00   0.00000000000000E+00   0.00000000000000E+00
      0.00000000000000E+00   5.78541852046920E-17
      3.70000000000000E-01
      0.00000000000000E+00   0.00000000000000E+00   0.00000000000000E+00   0.00000000000000E+00  -2.48619340706174E-13