DF-ISE text

Info {
  version   = 1.0
  type      = xyplot
  datasets  = [
    "time"
    "source OuterVoltage" "source InnerVoltage" "source QuasiFermiPotential" "source DisplacementCurrent" "source eCurrent"
    "source hCurrent" "source TotalCurrent" "source Charge" "topGate OuterVoltage" "topGate InnerVoltage"
    "topGate QuasiFermiPotential" "topGate DisplacementCurrent" "topGate eCurrent" "topGate hCurrent" "topGate TotalCurrent"
    "topGate Charge" "drain OuterVoltage" "drain InnerVoltage" "drain QuasiFermiPotential" "drain DisplacementCurrent"
    "drain eCurrent" "drain hCurrent" "drain TotalCurrent" "drain Charge" "bottomGate OuterVoltage"
    "bottomGate InnerVoltage" "bottomGate QuasiFermiPotential" "bottomGate DisplacementCurrent" "bottomGate eCurrent" "bottomGate hCurrent"
    "bottomGate TotalCurrent" "bottomGate Charge" ]
  functions = [
    Time
    OuterVoltage InnerVoltage QuasiFermiPotential DisplacementCurrent eCurrent
    hCurrent TotalCurrent Charge OuterVoltage InnerVoltage
    QuasiFermiPotential DisplacementCurrent eCurrent hCurrent TotalCurrent
    Charge OuterVoltage InnerVoltage QuasiFermiPotential DisplacementCurrent
    eCurrent hCurrent TotalCurrent Charge OuterVoltage
    InnerVoltage QuasiFermiPotential DisplacementCurrent eCurrent hCurrent
    TotalCurrent Charge ]
}

Data {
      1.00000000000000E-02
      0.00000000000000E+00   0.00000000000000E+00   0.00000000000000E+00   0.00000000000000E+00  -2.05208764479967E-13
     -5.06120832113617E-11  -5.08172919758417E-11  -1.26262109098727E-17   4.00000000000000E-03   4.00000000000000E-03
      0.00000000000000E+00   0.00000000000000E+00   0.00000000000000E+00   0.00000000000000E+00   0.00000000000000E+00
     -9.92999135062431E-17   1.10000000000000E-01   1.10000000000000E-01   0.00000000000000E+00   0.00000000000000E+00
      5.08139200575100E-11   3.37191833169834E-15   5.08172919758417E-11   1.12264160916815E-17   3.70000000000000E-01
      3.70000000000000E-01   0.00000000000000E+00   0.00000000000000E+00   0.00000000000000E+00   0.00000000000000E+00
      0.00000000000000E+00   1.00699708324434E-16
      2.00000000000000E-02
      0.00000000000000E+00   0.00000000000000E+00   0.00000000000000E+00   0.00000000000000E+00  -2.06494340039712E-13
     -4.81060949772255E-11  -4.83125893172652E-11  -1.26696508437765E-17   8.00000000000000E-03   8.00000000000000E-03
      0.00000000000000E+00   0.00000000000000E+00   0.00000000000000E+00   0.00000000000000E+00   0.00000000000000E+00
     -9.81632368696328E-17   1.10000000000000E-01   1.10000000000000E-01   0.00000000000000E+00   0.00000000000000E+00
      4.83092382205394E-11   3.35109672585862E-15   4.83125893172652E-11   1.11822908210201E-17   3.70000000000000E-01
      3.70000000000000E-01   0.00000000000000E+00   0.00000000000000E+00   0.00000000000000E+00   0.00000000000000E+00
      0.00000000000000E+00   9.96505968923892E-17
      3.00000000000000E-02
      0.00000000000000E+00   0.00000000000000E+00   0.00000000000000E+00   0.00000000000000E+00  -2.07781599793141E-13
     -4.57594214716486E-11  -4.59672030714418E-11  -1.27130762579751E-17   1.20000000000000E-02   1.20000000000000E-02
      0.00000000000000E+00   0.00000000000000E+00   0.00000000000000E+00   0.00000000000000E+00   0.00000000000000E+00
     -9.70265530647593E-17   1.10000000000000E-01   1.10000000000000E-01   0.00000000000000E+00   0.00000000000000E+00
      4.59638727009107E-11   3.33037053099698E-15   4.59672030714417E-11   1.11381366837647E-17   3.70000000000000E-01
      3.70000000000000E-01   0.00000000000000E+00   0.00000000000000E+00   0.00000000000000E+00   0.00000000000000E+00
      0.00000000000000E+00   9.86014926389697E-17
      4.00000000000000E-02
      0.00000000000000E+00   0.00000000000000E+00   0.00000000000000E+00   0.00000000000000E+00  -2.09070550386602E-13
     -4.35613133411328E-11  -4.37703838915194E-11  -1.27564874289639E-17   1.60000000000000E-02   1.60000000000000E-02
      0.00000000000000E+00   0.00000000000000E+00   0.00000000000000E+00   0.00000000000000E+00   0.00000000000000E+00
     -9.58898616439612E-17   1.10000000000000E-01   1.10000000000000E-01   0.00000000000000E+00   0.00000000000000E+00
      4.37670741619979E-11   3.30972952147995E-15   4.37703838915194E-11   1.10939530608342E-17   3.70000000000000E-01
      3.70000000000000E-01   0.00000000000000E+00   0.00000000000000E+00   0.00000000000000E+00   0.00000000000000E+00
      0.00000000000000E+00   9.75523960120909E-17
      5.00000000000000E-02
      0.00000000000000E+00   0.00000000000000E+00   0.00000000000000E+00   0.00000000000000E+00  -2.10361196324244E-13
     -4.15016908281195E-11  -4.17120520244437E-11  -1.27998846272381E-17   2.00000000000000E-02   2.00000000000000E-02
      0.00000000000000E+00   0.00000000000000E+00   0.00000000000000E+00   0.00000000000000E+00   0.00000000000000E+00
     -9.47531621552121E-17   1.10000000000000E-01   1.10000000000000E-01   0.00000000000000E+00   0.00000000000000E+00
      4.17087628610118E-11   3.28916343183138E-15   4.17120520244437E-11   1.10497393183801E-17   3.70000000000000E-01
      3.70000000000000E-01   0.00000000000000E+00   0.00000000000000E+00   0.00000000000000E+00   0.00000000000000E+00
      0.00000000000000E+00   9.65033074640702E-17
      6.00000000000000E-02
      0.00000000000000E+00   0.00000000000000E+00   0.00000000000000E+00   0.00000000000000E+00  -2.11653540148504E-13
     -3.95711091678857E-11  -3.97827627080342E-11  -1.28432681174350E-17   2.40000000000000E-02   2.40000000000000E-02
      0.00000000000000E+00   0.00000000000000E+00   0.00000000000000E+00   0.00000000000000E+00   0.00000000000000E+00
     -9.36164541418493E-17   1.10000000000000E-01   1.10000000000000E-01   0.00000000000000E+00   0.00000000000000E+00
      3.97794940460160E-11   3.26866201813476E-15   3.97827627080341E-11   1.10054948073867E-17   3.70000000000000E-01
      3.70000000000000E-01   0.00000000000000E+00   0.00000000000000E+00   0.00000000000000E+00   0.00000000000000E+00
      0.00000000000000E+00   9.54542274518975E-17
      7.00000000000000E-02
      0.00000000000000E+00   0.00000000000000E+00   0.00000000000000E+00   0.00000000000000E+00  -2.12947582633395E-13
     -3.77607254140631E-11  -3.79736729966965E-11  -1.28866381584716E-17   2.80000000000000E-02   2.80000000000000E-02
      0.00000000000000E+00   0.00000000000000E+00   0.00000000000000E+00   0.00000000000000E+00   0.00000000000000E+00
     -9.24797371423001E-17   1.10000000000000E-01   1.10000000000000E-01   0.00000000000000E+00   0.00000000000000E+00
      3.79704247815928E-11   3.24821510367463E-15   3.79736729966965E-11   1.09612188632615E-17   3.70000000000000E-01
      3.70000000000000E-01   0.00000000000000E+00   0.00000000000000E+00   0.00000000000000E+00   0.00000000000000E+00
      0.00000000000000E+00   9.44051564375102E-17
      8.00000000000000E-02
      0.00000000000000E+00   0.00000000000000E+00   0.00000000000000E+00   0.00000000000000E+00  -2.14243322944439E-13
     -3.60622666297792E-11  -3.62765099527236E-11  -1.29299950036798E-17   3.20000000000000E-02   3.20000000000000E-02
      0.00000000000000E+00   0.00000000000000E+00   0.00000000000000E+00   0.00000000000000E+00   0.00000000000000E+00
     -9.13430106898038E-17   1.10000000000000E-01   1.10000000000000E-01   0.00000000000000E+00   0.00000000000000E+00
      3.62732821400882E-11   3.22781263538321E-15   3.62765099527236E-11   1.09169108054134E-17   3.70000000000000E-01
      3.70000000000000E-01   0.00000000000000E+00   0.00000000000000E+00   0.00000000000000E+00   0.00000000000000E+00
      0.00000000000000E+00   9.33560948880702E-17
      9.00000000000000E-02
      0.00000000000000E+00   0.00000000000000E+00   0.00000000000000E+00   0.00000000000000E+00  -2.15540758785075E-13
     -3.44679993873323E-11  -3.46835401461174E-11  -1.29733389009375E-17   3.60000000000000E-02   3.60000000000000E-02
      0.00000000000000E+00   0.00000000000000E+00   0.00000000000000E+00   0.00000000000000E+00   0.00000000000000E+00
     -9.02062743121288E-17   1.10000000000000E-01   1.10000000000000E-01   0.00000000000000E+00   0.00000000000000E+00
      3.46803327013829E-11   3.20744473448484E-15   3.46835401461174E-11   1.08725699368195E-17   3.70000000000000E-01
      3.70000000000000E-01   0.00000000000000E+00   0.00000000000000E+00   0.00000000000000E+00   0.00000000000000E+00
      0.00000000000000E+00   9.23070432762467E-17
      1.00000000000000E-01
      0.00000000000000E+00   0.00000000000000E+00   0.00000000000000E+00   0.00000000000000E+00  -2.16839886535706E-13
     -3.29707005246553E-11  -3.31875404111910E-11  -1.30166700927971E-17   4.00000000000000E-02   4.00000000000000E-02
      0.00000000000000E+00   0.00000000000000E+00   0.00000000000000E+00   0.00000000000000E+00   0.00000000000000E+00
     -8.90695275312863E-17   1.10000000000000E-01   1.10000000000000E-01   0.00000000000000E+00   0.00000000000000E+00
      3.31843533094377E-11   3.18710175327629E-15   3.31875404111909E-11   1.08281955435801E-17   3.70000000000000E-01
      3.70000000000000E-01   0.00000000000000E+00   0.00000000000000E+00   0.00000000000000E+00   0.00000000000000E+00
      0.00000000000000E+00   9.12580020805033E-17
      1.10000000000000E-01
      0.00000000000000E+00   0.00000000000000E+00   0.00000000000000E+00   0.00000000000000E+00  -2.18140701385494E-13
     -3.15636291115220E-11  -3.17817698129075E-11  -1.30599888166100E-17   4.40000000000000E-02   4.40000000000000E-02
      0.00000000000000E+00   0.00000000000000E+00   0.00000000000000E+00   0.00000000000000E+00   0.00000000000000E+00
     -8.79327698632391E-17   1.10000000000000E-01   1.10000000000000E-01   0.00000000000000E+00   0.00000000000000E+00
      3.17786030385922E-11   3.16677431527072E-15   3.17817698129074E-11   1.07837868944601E-17   3.70000000000000E-01
      3.70000000000000E-01   0.00000000000000E+00   0.00000000000000E+00   0.00000000000000E+00   0.00000000000000E+00
      0.00000000000000E+00   9.02089717853891E-17
      1.20000000000000E-01
      0.00000000000000E+00   0.00000000000000E+00   0.00000000000000E+00   0.00000000000000E+00  -2.19443197444771E-13
     -3.02404995826807E-11  -3.04599427801255E-11  -1.31032953046487E-17   4.80000000000000E-02   4.80000000000000E-02
      0.00000000000000E+00   0.00000000000000E+00   0.00000000000000E+00   0.00000000000000E+00   0.00000000000000E+00
     -8.67960008176047E-17   1.10000000000000E-01   1.10000000000000E-01   0.00000000000000E+00   0.00000000000000E+00
      3.04567963267426E-11   3.14645338288942E-15   3.04599427801255E-11   1.07393432404179E-17   3.70000000000000E-01
      3.70000000000000E-01   0.00000000000000E+00   0.00000000000000E+00   0.00000000000000E+00   0.00000000000000E+00
      0.00000000000000E+00   8.91599528818355E-17
      1.30000000000000E-01
      0.00000000000000E+00   0.00000000000000E+00   0.00000000000000E+00   0.00000000000000E+00  -2.20747367846393E-13
     -2.89954559986453E-11  -2.92162033664917E-11  -1.31465897842255E-17   5.20000000000000E-02   5.20000000000000E-02
      0.00000000000000E+00   0.00000000000000E+00   0.00000000000000E+00   0.00000000000000E+00   0.00000000000000E+00
     -8.56592198973539E-17   1.10000000000000E-01   1.10000000000000E-01   0.00000000000000E+00   0.00000000000000E+00
      2.92130772362003E-11   3.12613029137587E-15   2.92162033664917E-11   1.06948638141205E-17   3.70000000000000E-01
      3.70000000000000E-01   0.00000000000000E+00   0.00000000000000E+00   0.00000000000000E+00   0.00000000000000E+00
      0.00000000000000E+00   8.81109458674589E-17
      1.40000000000000E-01
      0.00000000000000E+00   0.00000000000000E+00   0.00000000000000E+00   0.00000000000000E+00  -2.22053204849393E-13
     -2.78230473981454E-11  -2.80451006029948E-11  -1.31898724778082E-17   5.60000000000000E-02   5.60000000000000E-02
      0.00000000000000E+00   0.00000000000000E+00   0.00000000000000E+00   0.00000000000000E+00   0.00000000000000E+00
     -8.45224265985030E-17   1.10000000000000E-01   1.10000000000000E-01   0.00000000000000E+00   0.00000000000000E+00
      2.80419948061925E-11   3.10579680220874E-15   2.80451006029948E-11   1.06503478294438E-17   3.70000000000000E-01
      3.70000000000000E-01   0.00000000000000E+00   0.00000000000000E+00   0.00000000000000E+00   0.00000000000000E+00
      0.00000000000000E+00   8.70619512468674E-17
      1.50000000000000E-01
      0.00000000000000E+00   0.00000000000000E+00   0.00000000000000E+00   0.00000000000000E+00  -2.23360699925366E-13
     -2.67182042088711E-11  -2.69415649087964E-11  -1.32331436031332E-17   6.00000000000000E-02   6.00000000000000E-02
      0.00000000000000E+00   0.00000000000000E+00   0.00000000000000E+00   0.00000000000000E+00   0.00000000000000E+00
     -8.33856204098007E-17   1.10000000000000E-01   1.10000000000000E-01   0.00000000000000E+00   0.00000000000000E+00
      2.69384794636522E-11   3.08544514415043E-15   2.69415649087964E-11   1.06057944809580E-17   3.70000000000000E-01
      3.70000000000000E-01   0.00000000000000E+00   0.00000000000000E+00   0.00000000000000E+00   0.00000000000000E+00
      0.00000000000000E+00   8.60129695319758E-17
      1.60000000000000E-01
      0.00000000000000E+00   0.00000000000000E+00   0.00000000000000E+00   0.00000000000000E+00  -2.24669843844112E-13
     -2.56762156855005E-11  -2.59008855293447E-11  -1.32764033733157E-17   6.40000000000000E-02   6.40000000000000E-02
      0.00000000000000E+00   0.00000000000000E+00   0.00000000000000E+00   0.00000000000000E+00   0.00000000000000E+00
     -8.22488008124080E-17   1.10000000000000E-01   1.10000000000000E-01   0.00000000000000E+00   0.00000000000000E+00
      2.58978204612870E-11   3.06506805764729E-15   2.59008855293447E-11   1.05612029433988E-17   3.70000000000000E-01
      3.70000000000000E-01   0.00000000000000E+00   0.00000000000000E+00   0.00000000000000E+00   0.00000000000000E+00
      0.00000000000000E+00   8.49640012423250E-17
      1.70000000000000E-01
      0.00000000000000E+00   0.00000000000000E+00   0.00000000000000E+00   0.00000000000000E+00  -2.25980626730995E-13
     -2.46927083459162E-11  -2.49186889726472E-11  -1.33196519969567E-17   6.80000000000000E-02   6.80000000000000E-02
      0.00000000000000E+00   0.00000000000000E+00   0.00000000000000E+00   0.00000000000000E+00   0.00000000000000E+00
     -8.11119672795725E-17   1.10000000000000E-01   1.10000000000000E-01   0.00000000000000E+00   0.00000000000000E+00
      2.49156443138139E-11   3.04465883328798E-15   2.49186889726472E-11   1.05165723711202E-17   3.70000000000000E-01
      3.70000000000000E-01   0.00000000000000E+00   0.00000000000000E+00   0.00000000000000E+00   0.00000000000000E+00
      0.00000000000000E+00   8.39150469054090E-17
      1.80000000000000E-01
      0.00000000000000E+00   0.00000000000000E+00   0.00000000000000E+00   0.00000000000000E+00  -2.27293038159511E-13
     -2.37636253781242E-11  -2.39909184162837E-11  -1.33628896782481E-17   7.20000000000000E-02   7.20000000000000E-02
      0.00000000000000E+00   0.00000000000000E+00   0.00000000000000E+00   0.00000000000000E+00   0.00000000000000E+00
     -7.99751192762936E-17   1.10000000000000E-01   1.10000000000000E-01   0.00000000000000E+00   0.00000000000000E+00
      2.39878942049455E-11   3.02421133821554E-15   2.39909184162838E-11   1.04719018975325E-17   3.70000000000000E-01
      3.70000000000000E-01   0.00000000000000E+00   0.00000000000000E+00   0.00000000000000E+00   0.00000000000000E+00
      0.00000000000000E+00   8.28661070570092E-17
      1.90000000000000E-01
      0.00000000000000E+00   0.00000000000000E+00   0.00000000000000E+00   0.00000000000000E+00  -2.28607067203985E-13
     -2.28852069917385E-11  -2.31138140589425E-11  -1.34061166170745E-17   7.60000000000000E-02   7.60000000000000E-02
      0.00000000000000E+00   0.00000000000000E+00   0.00000000000000E+00   0.00000000000000E+00   0.00000000000000E+00
     -7.88382562589826E-17   1.10000000000000E-01   1.10000000000000E-01   0.00000000000000E+00   0.00000000000000E+00
      2.31108103388847E-11   3.00372005779655E-15   2.31138140589425E-11   1.04271906345219E-17   3.70000000000000E-01
      3.70000000000000E-01   0.00000000000000E+00   0.00000000000000E+00   0.00000000000000E+00   0.00000000000000E+00
      0.00000000000000E+00   8.18171822415354E-17
      2.00000000000000E-01
      0.00000000000000E+00   0.00000000000000E+00   0.00000000000000E+00   0.00000000000000E+00  -2.29922702480017E-13
     -2.20539716888805E-11  -2.22838943913605E-11  -1.34493330091129E-17   8.00000000000000E-02   8.00000000000000E-02
      0.00000000000000E+00   0.00000000000000E+00   0.00000000000000E+00   0.00000000000000E+00   0.00000000000000E+00
     -7.77013776751135E-17   1.10000000000000E-01   1.10000000000000E-01   0.00000000000000E+00   0.00000000000000E+00
      2.22809112112478E-11   2.98318011269666E-15   2.22838943913605E-11   1.03824376718514E-17   3.70000000000000E-01
      3.70000000000000E-01   0.00000000000000E+00   0.00000000000000E+00   0.00000000000000E+00   0.00000000000000E+00
      0.00000000000000E+00   8.07682730123750E-17
      2.10000000000000E-01
      0.00000000000000E+00   0.00000000000000E+00   0.00000000000000E+00   0.00000000000000E+00  -2.31239932216387E-13
     -2.12666984302435E-11  -2.14979383624598E-11  -1.34925390459294E-17   8.40000000000000E-02   8.40000000000000E-02
      0.00000000000000E+00   0.00000000000000E+00   0.00000000000000E+00   0.00000000000000E+00   0.00000000000000E+00
     -7.65644829628655E-17   1.10000000000000E-01   1.10000000000000E-01   0.00000000000000E+00   0.00000000000000E+00
      2.14949757751750E-11   2.96258728487929E-15   2.14979383624598E-11   1.03376420765439E-17   3.70000000000000E-01
      3.70000000000000E-01   0.00000000000000E+00   0.00000000000000E+00   0.00000000000000E+00   0.00000000000000E+00
      0.00000000000000E+00   7.97193799322510E-17
      2.20000000000000E-01
      0.00000000000000E+00   0.00000000000000E+00   0.00000000000000E+00   0.00000000000000E+00  -2.32558744305539E-13
     -2.05204096726545E-11  -2.07529684169601E-11  -1.35357349150743E-17   8.80000000000000E-02   8.80000000000000E-02
      0.00000000000000E+00   0.00000000000000E+00   0.00000000000000E+00   0.00000000000000E+00   0.00000000000000E+00
     -7.54275715507574E-17   1.10000000000000E-01   1.10000000000000E-01   0.00000000000000E+00   0.00000000000000E+00
      2.07500264789272E-11   2.94193803282878E-15   2.07529684169600E-11   1.02928028922440E-17   3.70000000000000E-01
      3.70000000000000E-01   0.00000000000000E+00   0.00000000000000E+00   0.00000000000000E+00   0.00000000000000E+00
      0.00000000000000E+00   7.86705035735878E-17
      2.30000000000000E-01
      0.00000000000000E+00   0.00000000000000E+00   0.00000000000000E+00   0.00000000000000E+00  -2.33879126325603E-13
     -1.98123552549594E-11  -2.00462343812850E-11  -1.35789208001741E-17   9.20000000000000E-02   9.20000000000000E-02
      0.00000000000000E+00   0.00000000000000E+00   0.00000000000000E+00   0.00000000000000E+00   0.00000000000000E+00
     -7.42906428572723E-17   1.10000000000000E-01   1.10000000000000E-01   0.00000000000000E+00   0.00000000000000E+00
      2.00433131517836E-11   2.92122950135601E-15   2.00462343812850E-11   1.02479191385600E-17   3.70000000000000E-01
      3.70000000000000E-01   0.00000000000000E+00   0.00000000000000E+00   0.00000000000000E+00   0.00000000000000E+00
      0.00000000000000E+00   7.76216445188864E-17
      2.40000000000000E-01
      0.00000000000000E+00   0.00000000000000E+00   0.00000000000000E+00   0.00000000000000E+00  -2.35201065614499E-13
     -1.91399971093922E-11  -1.93751981750067E-11  -1.36220968810212E-17   9.60000000000000E-02   9.60000000000000E-02
      0.00000000000000E+00   0.00000000000000E+00   0.00000000000000E+00   0.00000000000000E+00   0.00000000000000E+00
     -7.31536962904724E-17   1.10000000000000E-01   1.10000000000000E-01   0.00000000000000E+00   0.00000000000000E+00
      1.93722977154721E-11   2.90045953459051E-15   1.93751981750067E-11   1.02029898103838E-17   3.70000000000000E-01
      3.70000000000000E-01   0.00000000000000E+00   0.00000000000000E+00   0.00000000000000E+00   0.00000000000000E+00
      0.00000000000000E+00   7.65728033611098E-17
      2.50000000000000E-01
      0.00000000000000E+00   0.00000000000000E+00   0.00000000000000E+00   0.00000000000000E+00  -2.36524549237609E-13
     -1.85009947757786E-11  -1.87375193250162E-11  -1.36652633336620E-17   1.00000000000000E-01   1.00000000000000E-01
      0.00000000000000E+00   0.00000000000000E+00   0.00000000000000E+00   0.00000000000000E+00   0.00000000000000E+00
     -7.20167312476042E-17   1.10000000000000E-01   1.10000000000000E-01   0.00000000000000E+00   0.00000000000000E+00
      1.87346396983485E-11   2.87962666763129E-15   1.87375193250162E-11   1.01580138771883E-17   3.70000000000000E-01
      3.70000000000000E-01   0.00000000000000E+00   0.00000000000000E+00   0.00000000000000E+00   0.00000000000000E+00
      0.00000000000000E+00   7.55239807040778E-17
      2.60000000000000E-01
      0.00000000000000E+00   0.00000000000000E+00   0.00000000000000E+00   0.00000000000000E+00  -2.37849564112774E-13
     -1.78931916961151E-11  -1.81310412602279E-11  -1.37084203304820E-17   1.04000000000000E-01   1.04000000000000E-01
      0.00000000000000E+00   0.00000000000000E+00   0.00000000000000E+00   0.00000000000000E+00   0.00000000000000E+00
     -7.08797471146921E-17   1.10000000000000E-01   1.10000000000000E-01   0.00000000000000E+00   0.00000000000000E+00
      1.81281825300973E-11   2.85873013063600E-15   1.81310412602279E-11   1.01129902823012E-17   3.70000000000000E-01
      3.70000000000000E-01   0.00000000000000E+00   0.00000000000000E+00   0.00000000000000E+00   0.00000000000000E+00
      0.00000000000000E+00   7.44751771628729E-17
      2.70000000000000E-01
      0.00000000000000E+00   0.00000000000000E+00   0.00000000000000E+00   0.00000000000000E+00  -2.39176096981905E-13
     -1.73146022670669E-11  -1.75537783640488E-11  -1.37515680402894E-17   1.08000000000000E-01   1.08000000000000E-01
      0.00000000000000E+00   0.00000000000000E+00   0.00000000000000E+00   0.00000000000000E+00   0.00000000000000E+00
     -6.97427432661209E-17   1.10000000000000E-01   1.10000000000000E-01   0.00000000000000E+00   0.00000000000000E+00
      1.75509405942123E-11   2.83776983646909E-15   1.75537783640488E-11   1.00679179421532E-17   3.70000000000000E-01
      3.70000000000000E-01   0.00000000000000E+00   0.00000000000000E+00   0.00000000000000E+00   0.00000000000000E+00
      0.00000000000000E+00   7.34263933642572E-17
      2.80000000000000E-01
      0.00000000000000E+00   0.00000000000000E+00   0.00000000000000E+00   0.00000000000000E+00  -2.40504134426383E-13
     -1.67633996279873E-11  -1.70039037624137E-11  -1.37947066283962E-17   1.12000000000000E-01   1.12000000000000E-01
      0.00000000000000E+00   0.00000000000000E+00   0.00000000000000E+00   0.00000000000000E+00   0.00000000000000E+00
     -6.86057190642067E-17   1.10000000000000E-01   1.10000000000000E-01   0.00000000000000E+00   0.00000000000000E+00
      1.70010870160470E-11   2.81674636667703E-15   1.70039037624137E-11   1.00227957455013E-17   3.70000000000000E-01
      3.70000000000000E-01   0.00000000000000E+00   0.00000000000000E+00   0.00000000000000E+00   0.00000000000000E+00
      0.00000000000000E+00   7.23776299471015E-17
      2.90000000000000E-01
      0.00000000000000E+00   0.00000000000000E+00   0.00000000000000E+00   0.00000000000000E+00  -2.41833662948478E-13
     -1.62379041620374E-11  -1.64797378249858E-11  -1.38378362566971E-17   1.16000000000000E-01   1.16000000000000E-01
      0.00000000000000E+00   0.00000000000000E+00   0.00000000000000E+00   0.00000000000000E+00   0.00000000000000E+00
     -6.74686738587537E-17   1.10000000000000E-01   1.10000000000000E-01   0.00000000000000E+00   0.00000000000000E+00
      1.64769421640347E-11   2.79566095111029E-15   1.64797378249858E-11   9.97762255262458E-18   3.70000000000000E-01
      3.70000000000000E-01   0.00000000000000E+00   0.00000000000000E+00   0.00000000000000E+00   0.00000000000000E+00
      0.00000000000000E+00   7.13288875628263E-17
      3.00000000000000E-01
      0.00000000000000E+00   0.00000000000000E+00   0.00000000000000E+00   0.00000000000000E+00  -2.43164668940060E-13
     -1.57365726879555E-11  -1.59797373568955E-11  -1.38809570837474E-17   1.20000000000000E-01   1.20000000000000E-01
      0.00000000000000E+00   0.00000000000000E+00   0.00000000000000E+00   0.00000000000000E+00   0.00000000000000E+00
     -6.63316069865993E-17   1.10000000000000E-01   1.10000000000000E-01   0.00000000000000E+00   0.00000000000000E+00
      1.59769628414477E-11   2.77451544786072E-15   1.59797373568955E-11   9.93239719449055E-18   3.70000000000000E-01
      3.70000000000000E-01   0.00000000000000E+00   0.00000000000000E+00   0.00000000000000E+00   0.00000000000000E+00
      0.00000000000000E+00   7.02801668758562E-17
      3.10000000000000E-01
      0.00000000000000E+00   0.00000000000000E+00   0.00000000000000E+00   0.00000000000000E+00  -2.44497138718004E-13
     -1.52579883199887E-11  -1.55024854587067E-11  -1.39240692648374E-17   1.24000000000000E-01   1.24000000000000E-01
      0.00000000000000E+00   0.00000000000000E+00   0.00000000000000E+00   0.00000000000000E+00   0.00000000000000E+00
     -6.51945177711439E-17   1.10000000000000E-01   1.10000000000000E-01   0.00000000000000E+00   0.00000000000000E+00
      1.54997321463972E-11   2.75331230944864E-15   1.55024854587067E-11   9.88711847189272E-18   3.70000000000000E-01
      3.70000000000000E-01   0.00000000000000E+00   0.00000000000000E+00   0.00000000000000E+00   0.00000000000000E+00
      0.00000000000000E+00   6.92314685640886E-17
      3.20000000000000E-01
      0.00000000000000E+00   0.00000000000000E+00   0.00000000000000E+00   0.00000000000000E+00  -2.45831058567516E-13
     -1.48008509735010E-11  -1.50466820320685E-11  -1.39671729520661E-17   1.28000000000000E-01   1.28000000000000E-01
      0.00000000000000E+00   0.00000000000000E+00   0.00000000000000E+00   0.00000000000000E+00   0.00000000000000E+00
     -6.40574055218657E-17   1.10000000000000E-01   1.10000000000000E-01   0.00000000000000E+00   0.00000000000000E+00
      1.50439499775146E-11   2.73205455390339E-15   1.50466820320685E-11   9.84178515455604E-18   3.70000000000000E-01
      3.70000000000000E-01   0.00000000000000E+00   0.00000000000000E+00   0.00000000000000E+00   0.00000000000000E+00
      0.00000000000000E+00   6.81827933193758E-17
      3.30000000000000E-01
      0.00000000000000E+00   0.00000000000000E+00   0.00000000000000E+00   0.00000000000000E+00  -2.47166414692609E-13
     -1.43639684937514E-11  -1.46111349084441E-11  -1.40102682944125E-17   1.32000000000000E-01   1.32000000000000E-01
      0.00000000000000E+00   0.00000000000000E+00   0.00000000000000E+00   0.00000000000000E+00   0.00000000000000E+00
     -6.29202695338207E-17   1.10000000000000E-01   1.10000000000000E-01   0.00000000000000E+00   0.00000000000000E+00
      1.46084241627167E-11   2.71074572737732E-15   1.46111349084441E-11   9.79639598020941E-18   3.70000000000000E-01
      3.70000000000000E-01   0.00000000000000E+00   0.00000000000000E+00   0.00000000000000E+00   0.00000000000000E+00
      0.00000000000000E+00   6.71341418480237E-17
      3.40000000000000E-01
      0.00000000000000E+00   0.00000000000000E+00   0.00000000000000E+00   0.00000000000000E+00  -2.48503193351056E-13
     -1.39462483853783E-11  -1.41947515787293E-11  -1.40533554378054E-17   1.36000000000000E-01   1.36000000000000E-01
      0.00000000000000E+00   0.00000000000000E+00   0.00000000000000E+00   0.00000000000000E+00   0.00000000000000E+00
     -6.17831090871241E-17   1.10000000000000E-01   1.10000000000000E-01   0.00000000000000E+00   0.00000000000000E+00
      1.41920621888660E-11   2.68938986334059E-15   1.41947515787293E-11   9.75094965362341E-18   3.70000000000000E-01
      3.70000000000000E-01   0.00000000000000E+00   0.00000000000000E+00   0.00000000000000E+00   0.00000000000000E+00
      0.00000000000000E+00   6.60855148713061E-17
      3.50000000000000E-01
      0.00000000000000E+00   0.00000000000000E+00   0.00000000000000E+00   0.00000000000000E+00  -2.49841380706366E-13
     -1.35466901201965E-11  -1.37965315009028E-11  -1.40964345251911E-17   1.40000000000000E-01   1.40000000000000E-01
      0.00000000000000E+00   0.00000000000000E+00   0.00000000000000E+00   0.00000000000000E+00   0.00000000000000E+00
     -6.06459234464164E-17   1.10000000000000E-01   1.10000000000000E-01   0.00000000000000E+00   0.00000000000000E+00
      1.37938635094638E-11   2.66799143897336E-15   1.37965315009028E-11   9.70544484561148E-18   3.70000000000000E-01
      3.70000000000000E-01   0.00000000000000E+00   0.00000000000000E+00   0.00000000000000E+00   0.00000000000000E+00
      0.00000000000000E+00   6.50369131259961E-17
      3.60000000000000E-01
      0.00000000000000E+00   0.00000000000000E+00   0.00000000000000E+00   0.00000000000000E+00  -2.51180963012807E-13
     -1.31643780010304E-11  -1.34155589640432E-11  -1.41395056965994E-17   1.44000000000000E-01   1.44000000000000E-01
      0.00000000000000E+00   0.00000000000000E+00   0.00000000000000E+00   0.00000000000000E+00   0.00000000000000E+00
     -5.95087118603083E-17   1.10000000000000E-01   1.10000000000000E-01   0.00000000000000E+00   0.00000000000000E+00
      1.34129124087102E-11   2.64655533301841E-15   1.34155589640432E-11   9.65988019199246E-18   3.70000000000000E-01
      3.70000000000000E-01   0.00000000000000E+00   0.00000000000000E+00   0.00000000000000E+00   0.00000000000000E+00
      0.00000000000000E+00   6.39883373649152E-17
      3.70000000000000E-01
      0.00000000000000E+00   0.00000000000000E+00   0.00000000000000E+00   0.00000000000000E+00  -2.52521926450034E-13