DF-ISE text

Info {
  version   = 1.0
  type      = xyplot
  datasets  = [
    "time"
    "source OuterVoltage" "source InnerVoltage" "source QuasiFermiPotential" "source DisplacementCurrent" "source eCurrent"
    "source hCurrent" "source TotalCurrent" "source Charge" "topGate OuterVoltage" "topGate InnerVoltage"
    "topGate QuasiFermiPotential" "topGate DisplacementCurrent" "topGate eCurrent" "topGate hCurrent" "topGate TotalCurrent"
    "topGate Charge" "drain OuterVoltage" "drain InnerVoltage" "drain QuasiFermiPotential" "drain DisplacementCurrent"
    "drain eCurrent" "drain hCurrent" "drain TotalCurrent" "drain Charge" "bottomGate OuterVoltage"
    "bottomGate InnerVoltage" "bottomGate QuasiFermiPotential" "bottomGate DisplacementCurrent" "bottomGate eCurrent" "bottomGate hCurrent"
    "bottomGate TotalCurrent" "bottomGate Charge" ]
  functions = [
    Time
    OuterVoltage InnerVoltage QuasiFermiPotential DisplacementCurrent eCurrent
    hCurrent TotalCurrent Charge OuterVoltage InnerVoltage
    QuasiFermiPotential DisplacementCurrent eCurrent hCurrent TotalCurrent
    Charge OuterVoltage InnerVoltage QuasiFermiPotential DisplacementCurrent
    eCurrent hCurrent TotalCurrent Charge OuterVoltage
    InnerVoltage QuasiFermiPotential DisplacementCurrent eCurrent hCurrent
    TotalCurrent Charge ]
}

Data {
      1.00000000000000E-02
      0.00000000000000E+00   0.00000000000000E+00   0.00000000000000E+00   0.00000000000000E+00   1.37624917152528E-18
     -1.18037511295701E-13  -1.18036135046530E-13  -1.02030405830492E-17   4.00000000000000E-03   4.00000000000000E-03
      0.00000000000000E+00   0.00000000000000E+00   0.00000000000000E+00   0.00000000000000E+00   0.00000000000000E+00
     -4.04023452444360E-17   0.00000000000000E+00   0.00000000000000E+00   0.00000000000000E+00   0.00000000000000E+00
      1.18037703683658E-13  -1.56863712841414E-18   1.18036135046530E-13   1.12264570733330E-17   1.50000000000000E-01
      1.50000000000000E-01   0.00000000000000E+00   0.00000000000000E+00   0.00000000000000E+00   0.00000000000000E+00
      0.00000000000000E+00   3.93789287541522E-17
      2.00000000000000E-02
      0.00000000000000E+00   0.00000000000000E+00   0.00000000000000E+00   0.00000000000000E+00   1.23156592854255E-18
     -1.01376834456037E-13  -1.01375602890109E-13  -1.02479631608023E-17   8.00000000000000E-03   8.00000000000000E-03
      0.00000000000000E+00   0.00000000000000E+00   0.00000000000000E+00   0.00000000000000E+00   0.00000000000000E+00
     -3.92649239733075E-17   0.00000000000000E+00   0.00000000000000E+00   0.00000000000000E+00   0.00000000000000E+00
      1.01377017542216E-13  -1.41465210701805E-18   1.01375602890109E-13   1.11823256813872E-17   1.50000000000000E-01
      1.50000000000000E-01   0.00000000000000E+00   0.00000000000000E+00   0.00000000000000E+00   0.00000000000000E+00
      0.00000000000000E+00   3.83305614527226E-17
      3.00000000000000E-02
      0.00000000000000E+00   0.00000000000000E+00   0.00000000000000E+00   0.00000000000000E+00   1.10273576263319E-18
     -8.70800813106936E-14  -8.70789785749309E-14  -1.02928406006366E-17   1.20000000000000E-02   1.20000000000000E-02
      0.00000000000000E+00   0.00000000000000E+00   0.00000000000000E+00   0.00000000000000E+00   0.00000000000000E+00
     -3.81275111035333E-17   0.00000000000000E+00   0.00000000000000E+00   0.00000000000000E+00   0.00000000000000E+00
      8.70802510318816E-14  -1.27245695071523E-18   8.70789785749309E-14   1.11381659150447E-17   1.50000000000000E-01
      1.50000000000000E-01   0.00000000000000E+00   0.00000000000000E+00   0.00000000000000E+00   0.00000000000000E+00
      0.00000000000000E+00   3.72821857891251E-17
      4.00000000000000E-02
      0.00000000000000E+00   0.00000000000000E+00   0.00000000000000E+00   0.00000000000000E+00   9.88002440920892E-19
     -7.48346143610730E-14  -7.48336263586321E-14  -1.03376738779700E-17   1.60000000000000E-02   1.60000000000000E-02
      0.00000000000000E+00   0.00000000000000E+00   0.00000000000000E+00   0.00000000000000E+00   0.00000000000000E+00
     -3.69901058184798E-17   0.00000000000000E+00   0.00000000000000E+00   0.00000000000000E+00   0.00000000000000E+00
      7.48347676897071E-14  -1.14133107502948E-18   7.48336263586320E-14   1.10939771198849E-17   1.50000000000000E-01
      1.50000000000000E-01   0.00000000000000E+00   0.00000000000000E+00   0.00000000000000E+00   0.00000000000000E+00
      0.00000000000000E+00   3.62338025765650E-17
      5.00000000000000E-02
      0.00000000000000E+00   0.00000000000000E+00   0.00000000000000E+00   0.00000000000000E+00   8.85803555540466E-19
     -6.43650245554440E-14  -6.43641387518884E-14  -1.03824639454802E-17   2.00000000000000E-02   2.00000000000000E-02
      0.00000000000000E+00   0.00000000000000E+00   0.00000000000000E+00   0.00000000000000E+00   0.00000000000000E+00
     -3.58527073070197E-17   0.00000000000000E+00   0.00000000000000E+00   0.00000000000000E+00   0.00000000000000E+00
      6.43651595164450E-14  -1.02076455653669E-18   6.43641387518884E-14   1.10497586294824E-17   1.50000000000000E-01
      1.50000000000000E-01   0.00000000000000E+00   0.00000000000000E+00   0.00000000000000E+00   0.00000000000000E+00
      0.00000000000000E+00   3.51854126230176E-17
      6.00000000000000E-02
      0.00000000000000E+00   0.00000000000000E+00   0.00000000000000E+00   0.00000000000000E+00   7.94768143060265E-19
     -5.54293012018124E-14  -5.54285064336693E-14  -1.04272117336437E-17   2.40000000000000E-02   2.40000000000000E-02
      0.00000000000000E+00   0.00000000000000E+00   0.00000000000000E+00   0.00000000000000E+00   0.00000000000000E+00
     -3.47153147629413E-17   0.00000000000000E+00   0.00000000000000E+00   0.00000000000000E+00   0.00000000000000E+00
      5.54294168386459E-14  -9.10404976572869E-19   5.54285064336694E-14   1.10055097647923E-17   1.50000000000000E-01
      1.50000000000000E-01   0.00000000000000E+00   0.00000000000000E+00   0.00000000000000E+00   0.00000000000000E+00
      0.00000000000000E+00   3.41370167317927E-17
      7.00000000000000E-02
      0.00000000000000E+00   0.00000000000000E+00   0.00000000000000E+00   0.00000000000000E+00   7.13660771218833E-19
     -4.78153234842486E-14  -4.78146098234774E-14  -1.04719181512627E-17   2.80000000000000E-02   2.80000000000000E-02
      0.00000000000000E+00   0.00000000000000E+00   0.00000000000000E+00   0.00000000000000E+00   0.00000000000000E+00
     -3.35779273843679E-17   0.00000000000000E+00   0.00000000000000E+00   0.00000000000000E+00   0.00000000000000E+00
      4.78154194243649E-14  -8.09600887524051E-19   4.78146098234774E-14   1.09612298335400E-17   1.50000000000000E-01
      1.50000000000000E-01   0.00000000000000E+00   0.00000000000000E+00   0.00000000000000E+00   0.00000000000000E+00
      0.00000000000000E+00   3.30886157020906E-17
      8.00000000000000E-02
      0.00000000000000E+00   0.00000000000000E+00   0.00000000000000E+00   0.00000000000000E+00   6.41386200013832E-19
     -4.13376534974462E-14  -4.13370121112462E-14  -1.05165840859807E-17   3.20000000000000E-02   3.20000000000000E-02
      0.00000000000000E+00   0.00000000000000E+00   0.00000000000000E+00   0.00000000000000E+00   0.00000000000000E+00
     -3.24405443731861E-17   0.00000000000000E+00   0.00000000000000E+00   0.00000000000000E+00   0.00000000000000E+00
      4.13377298638460E-14  -7.17752599734521E-19   4.13370121112462E-14   1.09169181296158E-17   1.50000000000000E-01
      1.50000000000000E-01   0.00000000000000E+00   0.00000000000000E+00   0.00000000000000E+00   0.00000000000000E+00
      0.00000000000000E+00   3.20402103295509E-17
      9.00000000000000E-02
      0.00000000000000E+00   0.00000000000000E+00   0.00000000000000E+00   0.00000000000000E+00   5.76982367398730E-19
     -3.58346133853833E-14  -3.58340364030159E-14  -1.05612104047858E-17   3.60000000000000E-02   3.60000000000000E-02
      0.00000000000000E+00   0.00000000000000E+00   0.00000000000000E+00   0.00000000000000E+00   0.00000000000000E+00
     -3.13031649344806E-17   0.00000000000000E+00   0.00000000000000E+00   0.00000000000000E+00   0.00000000000000E+00
      3.58346708476605E-14  -6.34444644620501E-19   3.58340364030159E-14   1.08725739324707E-17   1.50000000000000E-01
      1.50000000000000E-01   0.00000000000000E+00   0.00000000000000E+00   0.00000000000000E+00   0.00000000000000E+00
      0.00000000000000E+00   3.09918014067958E-17
      1.00000000000000E-01
      0.00000000000000E+00   0.00000000000000E+00   0.00000000000000E+00   0.00000000000000E+00   5.19593713962167E-19
     -3.11656288647826E-14  -3.11651092710686E-14  -1.06057979545035E-17   4.00000000000000E-02   4.00000000000000E-02
      0.00000000000000E+00   0.00000000000000E+00   0.00000000000000E+00   0.00000000000000E+00   0.00000000000000E+00
     -3.01657882759774E-17   0.00000000000000E+00   0.00000000000000E+00   0.00000000000000E+00   0.00000000000000E+00
      3.11656683944612E-14  -5.59123392611209E-19   3.11651092710686E-14   1.08281965065132E-17   1.50000000000000E-01
      1.50000000000000E-01   0.00000000000000E+00   0.00000000000000E+00   0.00000000000000E+00   0.00000000000000E+00
      0.00000000000000E+00   2.99433897239677E-17
      1.10000000000000E-01
      0.00000000000000E+00   0.00000000000000E+00   0.00000000000000E+00   0.00000000000000E+00   4.68447335403056E-19
     -2.72088208877152E-14  -2.72083524403798E-14  -1.06503475622768E-17   4.40000000000000E-02   4.40000000000000E-02
      0.00000000000000E+00   0.00000000000000E+00   0.00000000000000E+00   0.00000000000000E+00   0.00000000000000E+00
     -2.90284136074906E-17   0.00000000000000E+00   0.00000000000000E+00   0.00000000000000E+00   0.00000000000000E+00
      2.72088435805563E-14  -4.91140176533138E-19   2.72083524403798E-14   1.07837851005045E-17   1.50000000000000E-01
      1.50000000000000E-01   0.00000000000000E+00   0.00000000000000E+00   0.00000000000000E+00   0.00000000000000E+00
      0.00000000000000E+00   2.88949760692628E-17
      1.20000000000000E-01
      0.00000000000000E+00   0.00000000000000E+00   0.00000000000000E+00   0.00000000000000E+00   4.22870986838603E-19
     -2.38588286948271E-14  -2.38584058238403E-14  -1.06948600360371E-17   4.80000000000000E-02   4.80000000000000E-02
      0.00000000000000E+00   0.00000000000000E+00   0.00000000000000E+00   0.00000000000000E+00   0.00000000000000E+00
     -2.78910401403753E-17   0.00000000000000E+00   0.00000000000000E+00   0.00000000000000E+00   0.00000000000000E+00
      2.38588358811408E-14  -4.30057300554603E-19   2.38584058238403E-14   1.07393389469514E-17   1.50000000000000E-01
      1.50000000000000E-01   0.00000000000000E+00   0.00000000000000E+00   0.00000000000000E+00   0.00000000000000E+00
      0.00000000000000E+00   2.78465612294610E-17
      1.30000000000000E-01
      0.00000000000000E+00   0.00000000000000E+00   0.00000000000000E+00   0.00000000000000E+00   3.82274029998795E-19
     -2.10248488102863E-14  -2.10244665362563E-14  -1.07393361649630E-17   5.20000000000000E-02   5.20000000000000E-02
      0.00000000000000E+00   0.00000000000000E+00   0.00000000000000E+00   0.00000000000000E+00   0.00000000000000E+00
     -2.67536670869837E-17   0.00000000000000E+00   0.00000000000000E+00   0.00000000000000E+00   0.00000000000000E+00
      2.10248419657304E-14  -3.75429474132963E-19   2.10244665362563E-14   1.06948572614943E-17   1.50000000000000E-01
      1.50000000000000E-01   0.00000000000000E+00   0.00000000000000E+00   0.00000000000000E+00   0.00000000000000E+00
      0.00000000000000E+00   2.67981459904525E-17
      1.40000000000000E-01
      0.00000000000000E+00   0.00000000000000E+00   0.00000000000000E+00   0.00000000000000E+00   3.46122065882408E-19
     -1.86288737908925E-14  -1.86285276688266E-14  -1.07837767199292E-17   5.60000000000000E-02   5.60000000000000E-02
      0.00000000000000E+00   0.00000000000000E+00   0.00000000000000E+00   0.00000000000000E+00   0.00000000000000E+00
     -2.56162936601240E-17   0.00000000000000E+00   0.00000000000000E+00   0.00000000000000E+00   0.00000000000000E+00
      1.86288543327630E-14  -3.26663936373792E-19   1.86285276688266E-14   1.06503392422900E-17   1.50000000000000E-01
      1.50000000000000E-01   0.00000000000000E+00   0.00000000000000E+00   0.00000000000000E+00   0.00000000000000E+00
      0.00000000000000E+00   2.57497311377632E-17
      1.50000000000000E-01
      0.00000000000000E+00   0.00000000000000E+00   0.00000000000000E+00   0.00000000000000E+00   3.13934620935958E-19
     -1.66041154958475E-14  -1.66038015612266E-14  -1.08281824539443E-17   6.00000000000000E-02   6.00000000000000E-02
      0.00000000000000E+00   0.00000000000000E+00   0.00000000000000E+00   0.00000000000000E+00   0.00000000000000E+00
     -2.44789190725213E-17   0.00000000000000E+00   0.00000000000000E+00   0.00000000000000E+00   0.00000000000000E+00
      1.66040848556839E-14  -2.83294457359655E-19   1.66038015612266E-14   1.06057840693877E-17   1.50000000000000E-01
      1.50000000000000E-01   0.00000000000000E+00   0.00000000000000E+00   0.00000000000000E+00   0.00000000000000E+00
      0.00000000000000E+00   2.47013174570779E-17
      1.60000000000000E-01
      0.00000000000000E+00   0.00000000000000E+00   0.00000000000000E+00   0.00000000000000E+00   2.85304208499158E-19
     -1.48935994955886E-14  -1.48933141913801E-14  -1.08725541025792E-17   6.40000000000000E-02   6.40000000000000E-02
      0.00000000000000E+00   0.00000000000000E+00   0.00000000000000E+00   0.00000000000000E+00   0.00000000000000E+00
     -2.33415425362798E-17   0.00000000000000E+00   0.00000000000000E+00   0.00000000000000E+00   0.00000000000000E+00
      1.48935590602312E-14  -2.44868851150939E-19   1.48933141913801E-14   1.05611909040956E-17   1.50000000000000E-01
      1.50000000000000E-01   0.00000000000000E+00   0.00000000000000E+00   0.00000000000000E+00   0.00000000000000E+00
      0.00000000000000E+00   2.36529057347634E-17
      1.70000000000000E-01
      0.00000000000000E+00   0.00000000000000E+00   0.00000000000000E+00   0.00000000000000E+00   2.59858096286766E-19
     -1.34489166286133E-14  -1.34486567705171E-14  -1.09168923843854E-17   6.80000000000000E-02   6.80000000000000E-02
      0.00000000000000E+00   0.00000000000000E+00   0.00000000000000E+00   0.00000000000000E+00   0.00000000000000E+00
     -2.22041632623452E-17   0.00000000000000E+00   0.00000000000000E+00   0.00000000000000E+00   0.00000000000000E+00
      1.34488677727593E-14  -2.11002242256269E-19   1.34486567705171E-14   1.05165588883387E-17   1.50000000000000E-01
      1.50000000000000E-01   0.00000000000000E+00   0.00000000000000E+00   0.00000000000000E+00   0.00000000000000E+00
      0.00000000000000E+00   2.26044967583919E-17
      1.80000000000000E-01
      0.00000000000000E+00   0.00000000000000E+00   0.00000000000000E+00   0.00000000000000E+00   2.37274340410350E-19
     -1.22291194737654E-14  -1.22288821994250E-14  -1.09611980013025E-17   7.20000000000000E-02   7.20000000000000E-02
      0.00000000000000E+00   0.00000000000000E+00   0.00000000000000E+00   0.00000000000000E+00   0.00000000000000E+00
     -2.10667804599661E-17   0.00000000000000E+00   0.00000000000000E+00   0.00000000000000E+00   0.00000000000000E+00
      1.22290633555035E-14  -1.81156078540804E-19   1.22288821994250E-14   1.04718871440042E-17   1.50000000000000E-01
      1.50000000000000E-01   0.00000000000000E+00   0.00000000000000E+00   0.00000000000000E+00   0.00000000000000E+00
      0.00000000000000E+00   2.15560913172644E-17
      1.90000000000000E-01
      0.00000000000000E+00   0.00000000000000E+00   0.00000000000000E+00   0.00000000000000E+00   2.17271835733639E-19
     -1.11997509193089E-14  -1.11995336474731E-14  -1.10054716390577E-17   7.60000000000000E-02   7.60000000000000E-02
      0.00000000000000E+00   0.00000000000000E+00   0.00000000000000E+00   0.00000000000000E+00   0.00000000000000E+00
     -1.99293933361546E-17   0.00000000000000E+00   0.00000000000000E+00   0.00000000000000E+00   0.00000000000000E+00
      1.11996887223110E-14  -1.55074837871991E-19   1.11995336474731E-14   1.04271747722757E-17   1.50000000000000E-01
      1.50000000000000E-01   0.00000000000000E+00   0.00000000000000E+00   0.00000000000000E+00   0.00000000000000E+00
      0.00000000000000E+00   2.05076902029366E-17
      2.00000000000000E-01
      0.00000000000000E+00   0.00000000000000E+00   0.00000000000000E+00   0.00000000000000E+00   1.99580388154239E-19
     -1.03319953435222E-14  -1.03317957631341E-14  -1.10497139675545E-17   8.00000000000000E-02   8.00000000000000E-02
      0.00000000000000E+00   0.00000000000000E+00   0.00000000000000E+00   0.00000000000000E+00   0.00000000000000E+00
     -1.87920010951442E-17   0.00000000000000E+00   0.00000000000000E+00   0.00000000000000E+00   0.00000000000000E+00
      1.03319280438636E-14  -1.32280729555081E-19   1.03317957631341E-14   1.03824208529521E-17   1.50000000000000E-01
      1.50000000000000E-01   0.00000000000000E+00   0.00000000000000E+00   0.00000000000000E+00   0.00000000000000E+00
      0.00000000000000E+00   1.94592942097467E-17
      2.10000000000000E-01
      0.00000000000000E+00   0.00000000000000E+00   0.00000000000000E+00   0.00000000000000E+00   1.83991060072259E-19
     -9.60194028171640E-15  -9.60175629065633E-15  -1.10939256412532E-17   8.40000000000000E-02   8.40000000000000E-02
      0.00000000000000E+00   0.00000000000000E+00   0.00000000000000E+00   0.00000000000000E+00   0.00000000000000E+00
     -1.76546029378449E-17   0.00000000000000E+00   0.00000000000000E+00   0.00000000000000E+00   0.00000000000000E+00
      9.60186877135458E-15  -1.12480698257975E-19   9.60175629065632E-15   1.03376244437519E-17   1.50000000000000E-01
      1.50000000000000E-01   0.00000000000000E+00   0.00000000000000E+00   0.00000000000000E+00   0.00000000000000E+00
      0.00000000000000E+00   1.84109041353462E-17
      2.20000000000000E-01
      0.00000000000000E+00   0.00000000000000E+00   0.00000000000000E+00   0.00000000000000E+00   1.70298895671380E-19
     -8.98994067682575E-15  -8.98977037793008E-15  -1.11381072995413E-17   8.80000000000000E-02   8.80000000000000E-02
      0.00000000000000E+00   0.00000000000000E+00   0.00000000000000E+00   0.00000000000000E+00   0.00000000000000E+00
     -1.65171980612936E-17   0.00000000000000E+00   0.00000000000000E+00   0.00000000000000E+00   0.00000000000000E+00
      8.98986571890692E-15  -9.53409768340346E-20   8.98977037793009E-15   1.02927845796004E-17   1.50000000000000E-01
      1.50000000000000E-01   0.00000000000000E+00   0.00000000000000E+00   0.00000000000000E+00   0.00000000000000E+00
      0.00000000000000E+00   1.73625207812346E-17
      2.30000000000000E-01
      0.00000000000000E+00   0.00000000000000E+00   0.00000000000000E+00   0.00000000000000E+00   1.58362139785560E-19
     -8.48007611507202E-15  -8.47991775293224E-15  -1.11822595670964E-17   9.20000000000000E-02   9.20000000000000E-02
      0.00000000000000E+00   0.00000000000000E+00   0.00000000000000E+00   0.00000000000000E+00   0.00000000000000E+00
     -1.53797856581009E-17   0.00000000000000E+00   0.00000000000000E+00   0.00000000000000E+00   0.00000000000000E+00
      8.47999836193463E-15  -8.06090023995796E-20   8.47991775293223E-15   1.02479002718988E-17   1.50000000000000E-01
      1.50000000000000E-01   0.00000000000000E+00   0.00000000000000E+00   0.00000000000000E+00   0.00000000000000E+00
      0.00000000000000E+00   1.63141449532986E-17
      2.40000000000000E-01
      0.00000000000000E+00   0.00000000000000E+00   0.00000000000000E+00   0.00000000000000E+00   1.47989495952953E-19
     -8.05969391908445E-15  -8.05954592958850E-15  -1.12263830542393E-17   9.60000000000000E-02   9.60000000000000E-02
      0.00000000000000E+00   0.00000000000000E+00   0.00000000000000E+00   0.00000000000000E+00   0.00000000000000E+00
     -1.42423649158905E-17   0.00000000000000E+00   0.00000000000000E+00   0.00000000000000E+00   0.00000000000000E+00
      8.05961385274799E-15  -6.79231594936519E-20   8.05954592958850E-15   1.02029705077734E-17   1.50000000000000E-01
      1.50000000000000E-01   0.00000000000000E+00   0.00000000000000E+00   0.00000000000000E+00   0.00000000000000E+00
      0.00000000000000E+00   1.52657774623563E-17
      2.50000000000000E-01
      0.00000000000000E+00   0.00000000000000E+00   0.00000000000000E+00   0.00000000000000E+00   1.39098600271435E-19
     -7.71903033850488E-15  -7.71889123990461E-15  -1.12704783572787E-17   1.00000000000000E-01   1.00000000000000E-01
      0.00000000000000E+00   0.00000000000000E+00   0.00000000000000E+00   0.00000000000000E+00   0.00000000000000E+00
     -1.31049350167334E-17   0.00000000000000E+00   0.00000000000000E+00   0.00000000000000E+00   0.00000000000000E+00
      7.71894835428199E-15  -5.71143773764414E-20   7.71889123990461E-15   1.01579942493036E-17   1.50000000000000E-01
      1.50000000000000E-01   0.00000000000000E+00   0.00000000000000E+00   0.00000000000000E+00   0.00000000000000E+00
      0.00000000000000E+00   1.42174191247085E-17
      2.60000000000000E-01
      0.00000000000000E+00   0.00000000000000E+00   0.00000000000000E+00   0.00000000000000E+00   1.31535569654076E-19
     -7.45090479535462E-15  -7.45077325978496E-15  -1.13145460588490E-17   1.04000000000000E-01   1.04000000000000E-01
      0.00000000000000E+00   0.00000000000000E+00   0.00000000000000E+00   0.00000000000000E+00   0.00000000000000E+00
     -1.19674951365736E-17   0.00000000000000E+00   0.00000000000000E+00   0.00000000000000E+00   0.00000000000000E+00
      7.45082117431736E-15  -4.79145324011207E-20   7.45077325978496E-15   1.01129704327270E-17   1.50000000000000E-01
      1.50000000000000E-01   0.00000000000000E+00   0.00000000000000E+00   0.00000000000000E+00   0.00000000000000E+00
      0.00000000000000E+00   1.31690707626955E-17
      2.70000000000000E-01
      0.00000000000000E+00   0.00000000000000E+00   0.00000000000000E+00   0.00000000000000E+00   1.25234779988406E-19
     -7.25048082198134E-15  -7.25035558720135E-15  -1.13585867282375E-17   1.08000000000000E-01   1.08000000000000E-01
      0.00000000000000E+00   0.00000000000000E+00   0.00000000000000E+00   0.00000000000000E+00   0.00000000000000E+00
     -1.08300444446453E-17   0.00000000000000E+00   0.00000000000000E+00   0.00000000000000E+00   0.00000000000000E+00
      7.25039571588119E-15  -4.01286798442712E-20   7.25035558720135E-15   1.00678979676201E-17   1.50000000000000E-01
      1.50000000000000E-01   0.00000000000000E+00   0.00000000000000E+00   0.00000000000000E+00   0.00000000000000E+00
      0.00000000000000E+00   1.21207332052626E-17
      2.80000000000000E-01
      0.00000000000000E+00   0.00000000000000E+00   0.00000000000000E+00   0.00000000000000E+00   1.20107003233739E-19
     -7.11508988819440E-15  -7.11496978119116E-15  -1.14026009217063E-17   1.12000000000000E-01   1.12000000000000E-01
      0.00000000000000E+00   0.00000000000000E+00   0.00000000000000E+00   0.00000000000000E+00   0.00000000000000E+00
     -9.69258210288054E-18   0.00000000000000E+00   0.00000000000000E+00   0.00000000000000E+00   0.00000000000000E+00
      7.11500336534734E-15  -3.35841561713492E-20   7.11496978119117E-15   1.00227757360525E-17   1.50000000000000E-01
      1.50000000000000E-01   0.00000000000000E+00   0.00000000000000E+00   0.00000000000000E+00   0.00000000000000E+00
      0.00000000000000E+00   1.10724072885344E-17
      2.90000000000000E-01
      0.00000000000000E+00   0.00000000000000E+00   0.00000000000000E+00   0.00000000000000E+00   1.16107176612498E-19
     -7.04411417401993E-15  -7.04399806684331E-15  -1.14465891828045E-17   1.16000000000000E-01   1.16000000000000E-01
      0.00000000000000E+00   0.00000000000000E+00   0.00000000000000E+00   0.00000000000000E+00   0.00000000000000E+00
     -8.55510726530623E-18   0.00000000000000E+00   0.00000000000000E+00   0.00000000000000E+00   0.00000000000000E+00
      7.04402618156948E-15  -2.81147261688813E-20   7.04399806684331E-15   9.97760259171295E-18   1.50000000000000E-01
      1.50000000000000E-01   0.00000000000000E+00   0.00000000000000E+00   0.00000000000000E+00   0.00000000000000E+00
      0.00000000000000E+00   1.00240938563977E-17
      3.00000000000000E-01
      0.00000000000000E+00   0.00000000000000E+00   0.00000000000000E+00   0.00000000000000E+00   1.13137593728063E-19
     -7.03892540955149E-15  -7.03881227195776E-15  -1.14905520426732E-17   1.20000000000000E-01   1.20000000000000E-01
      0.00000000000000E+00   0.00000000000000E+00   0.00000000000000E+00   0.00000000000000E+00   0.00000000000000E+00
     -7.41761907742896E-18   0.00000000000000E+00   0.00000000000000E+00   0.00000000000000E+00   0.00000000000000E+00
      7.03883583820046E-15  -2.35662426990535E-20   7.03881227195776E-15   9.93237735900599E-18   1.50000000000000E-01
      1.50000000000000E-01   0.00000000000000E+00   0.00000000000000E+00   0.00000000000000E+00   0.00000000000000E+00
      0.00000000000000E+00   8.97579376109619E-18
      3.10000000000000E-01
      0.00000000000000E+00   0.00000000000000E+00   0.00000000000000E+00   0.00000000000000E+00   1.11187268142499E-19
     -7.10287770366381E-15  -7.10276651639567E-15  -1.15344900203441E-17   1.24000000000000E-01   1.24000000000000E-01
      0.00000000000000E+00   0.00000000000000E+00   0.00000000000000E+00   0.00000000000000E+00   0.00000000000000E+00
     -6.28011667560709E-18   0.00000000000000E+00   0.00000000000000E+00   0.00000000000000E+00   0.00000000000000E+00
      7.10278630657324E-15  -1.97901775743234E-20   7.10276651639567E-15   9.88709883211582E-18   1.50000000000000E-01
      1.50000000000000E-01   0.00000000000000E+00   0.00000000000000E+00   0.00000000000000E+00   0.00000000000000E+00
      0.00000000000000E+00   7.92750786383536E-18
      3.20000000000000E-01
      0.00000000000000E+00   0.00000000000000E+00   0.00000000000000E+00   0.00000000000000E+00   1.10230008774793E-19
     -7.24135292429807E-15  -7.24124269428930E-15  -1.15784036230291E-17   1.28000000000000E-01   1.28000000000000E-01
      0.00000000000000E+00   0.00000000000000E+00   0.00000000000000E+00   0.00000000000000E+00   0.00000000000000E+00
     -5.14259918640846E-18   0.00000000000000E+00   0.00000000000000E+00   0.00000000000000E+00   0.00000000000000E+00
      7.24125941046421E-15  -1.67161749082608E-20   7.24124269428930E-15   9.84176577403654E-18   1.50000000000000E-01
      1.50000000000000E-01   0.00000000000000E+00   0.00000000000000E+00   0.00000000000000E+00   0.00000000000000E+00
      0.00000000000000E+00   6.87923703540105E-18
      3.30000000000000E-01
      0.00000000000000E+00   0.00000000000000E+00   0.00000000000000E+00   0.00000000000000E+00   1.10235664631010E-19
     -7.46185829022062E-15  -7.46174805455599E-15  -1.16222933464042E-17   1.32000000000000E-01   1.32000000000000E-01
      0.00000000000000E+00   0.00000000000000E+00   0.00000000000000E+00   0.00000000000000E+00   0.00000000000000E+00
     -4.00506572595255E-18   0.00000000000000E+00   0.00000000000000E+00   0.00000000000000E+00   0.00000000000000E+00
      7.46176230236496E-15  -1.42478089680615E-20   7.46174805455599E-15   9.79637691556575E-18   1.50000000000000E-01
      1.50000000000000E-01   0.00000000000000E+00   0.00000000000000E+00   0.00000000000000E+00   0.00000000000000E+00
      0.00000000000000E+00   5.83098215679102E-18
      3.40000000000000E-01
      0.00000000000000E+00   0.00000000000000E+00   0.00000000000000E+00   0.00000000000000E+00   1.11182795256820E-19
     -7.77417603468945E-15  -7.77406485189419E-15  -1.16661596748856E-17   1.36000000000000E-01   1.36000000000000E-01
      0.00000000000000E+00   0.00000000000000E+00   0.00000000000000E+00   0.00000000000000E+00   0.00000000000000E+00
     -2.86751539923559E-18   0.00000000000000E+00   0.00000000000000E+00   0.00000000000000E+00   0.00000000000000E+00
      7.77407711096356E-15  -1.22590693729344E-20   7.77406485189419E-15   9.75093095425949E-18   1.50000000000000E-01
      1.50000000000000E-01   0.00000000000000E+00   0.00000000000000E+00   0.00000000000000E+00   0.00000000000000E+00
      0.00000000000000E+00   4.78274411986165E-18
      3.50000000000000E-01
      0.00000000000000E+00   0.00000000000000E+00   0.00000000000000E+00   0.00000000000000E+00   1.13073750000035E-19
     -8.19056598948220E-15  -8.19045291573220E-15  -1.17100030818989E-17   1.40000000000000E-01   1.40000000000000E-01
      0.00000000000000E+00   0.00000000000000E+00   0.00000000000000E+00   0.00000000000000E+00   0.00000000000000E+00
     -1.72994729943735E-18   0.00000000000000E+00   0.00000000000000E+00   0.00000000000000E+00   0.00000000000000E+00
      8.19046361368285E-15  -1.06979506602037E-20   8.19045291573219E-15   9.70542655334568E-18   1.50000000000000E-01
      1.50000000000000E-01   0.00000000000000E+00   0.00000000000000E+00   0.00000000000000E+00   0.00000000000000E+00
      0.00000000000000E+00   3.73452382799056E-18
      3.60000000000000E-01
      0.00000000000000E+00   0.00000000000000E+00   0.00000000000000E+00   0.00000000000000E+00   1.15899239682684E-19
     -8.72602293226306E-15  -8.72590703302337E-15  -1.17538240301425E-17   1.44000000000000E-01   1.44000000000000E-01
      0.00000000000000E+00   0.00000000000000E+00   0.00000000000000E+00   0.00000000000000E+00   0.00000000000000E+00
     -5.92360507207807E-19   0.00000000000000E+00   0.00000000000000E+00   0.00000000000000E+00   0.00000000000000E+00
      8.72591654143667E-15  -9.50841330227893E-21   8.72590703302337E-15   9.65986234059356E-18   1.50000000000000E-01
      1.50000000000000E-01   0.00000000000000E+00   0.00000000000000E+00   0.00000000000000E+00   0.00000000000000E+00
      0.00000000000000E+00   2.68632219675675E-18
      3.70000000000000E-01
      0.00000000000000E+00   0.00000000000000E+00   0.00000000000000E+00   0.00000000000000E+00   1.19657375025665E-19